 Entering Gaussian System, Link 0=g09
 Input=forces.com
 Output=forces.log
 Initial command:
 /hits/basement/its/doserbd/software/gaussian/g09d1/g09/l1.exe "/hits/basement/mbm/sucerquia/gaussian_scratch/Gau-16309.inp" -scrdir="/hits/basement/mbm/sucerquia/gaussian_scratch/"
 Entering Link 1 = /hits/basement/its/doserbd/software/gaussian/g09d1/g09/l1.exe PID=     16310.
  
 Copyright (c) 1988,1990,1992,1993,1995,1998,2003,2009,2013,
            Gaussian, Inc.  All Rights Reserved.
  
 This is part of the Gaussian(R) 09 program.  It is based on
 the Gaussian(R) 03 system (copyright 2003, Gaussian, Inc.),
 the Gaussian(R) 98 system (copyright 1998, Gaussian, Inc.),
 the Gaussian(R) 94 system (copyright 1995, Gaussian, Inc.),
 the Gaussian 92(TM) system (copyright 1992, Gaussian, Inc.),
 the Gaussian 90(TM) system (copyright 1990, Gaussian, Inc.),
 the Gaussian 88(TM) system (copyright 1988, Gaussian, Inc.),
 the Gaussian 86(TM) system (copyright 1986, Carnegie Mellon
 University), and the Gaussian 82(TM) system (copyright 1983,
 Carnegie Mellon University). Gaussian is a federally registered
 trademark of Gaussian, Inc.
  
 This software contains proprietary and confidential information,
 including trade secrets, belonging to Gaussian, Inc.
  
 This software is provided under written license and may be
 used, copied, transmitted, or stored only in accord with that
 written license.
  
 The following legend is applicable only to US Government
 contracts under FAR:
  
                    RESTRICTED RIGHTS LEGEND
  
 Use, reproduction and disclosure by the US Government is
 subject to restrictions as set forth in subparagraphs (a)
 and (c) of the Commercial Computer Software - Restricted
 Rights clause in FAR 52.227-19.
  
 Gaussian, Inc.
 340 Quinnipiac St., Bldg. 40, Wallingford CT 06492
  
  
 ---------------------------------------------------------------
 Warning -- This program may not be used in any manner that
 competes with the business of Gaussian, Inc. or will provide
 assistance to any competitor of Gaussian, Inc.  The licensee
 of this program is prohibited from giving any competitor of
 Gaussian, Inc. access to this program.  By using this program,
 the user acknowledges that Gaussian, Inc. is engaged in the
 business of creating and licensing software in the field of
 computational chemistry and represents and warrants to the
 licensee that it is not a competitor of Gaussian, Inc. and that
 it will not use this program in any manner prohibited above.
 ---------------------------------------------------------------
  

 Cite this work as:
 Gaussian 09, Revision D.01,
 M. J. Frisch, G. W. Trucks, H. B. Schlegel, G. E. Scuseria, 
 M. A. Robb, J. R. Cheeseman, G. Scalmani, V. Barone, B. Mennucci, 
 G. A. Petersson, H. Nakatsuji, M. Caricato, X. Li, H. P. Hratchian, 
 A. F. Izmaylov, J. Bloino, G. Zheng, J. L. Sonnenberg, M. Hada, 
 M. Ehara, K. Toyota, R. Fukuda, J. Hasegawa, M. Ishida, T. Nakajima, 
 Y. Honda, O. Kitao, H. Nakai, T. Vreven, J. A. Montgomery, Jr., 
 J. E. Peralta, F. Ogliaro, M. Bearpark, J. J. Heyd, E. Brothers, 
 K. N. Kudin, V. N. Staroverov, T. Keith, R. Kobayashi, J. Normand, 
 K. Raghavachari, A. Rendell, J. C. Burant, S. S. Iyengar, J. Tomasi, 
 M. Cossi, N. Rega, J. M. Millam, M. Klene, J. E. Knox, J. B. Cross, 
 V. Bakken, C. Adamo, J. Jaramillo, R. Gomperts, R. E. Stratmann, 
 O. Yazyev, A. J. Austin, R. Cammi, C. Pomelli, J. W. Ochterski, 
 R. L. Martin, K. Morokuma, V. G. Zakrzewski, G. A. Voth, 
 P. Salvador, J. J. Dannenberg, S. Dapprich, A. D. Daniels, 
 O. Farkas, J. B. Foresman, J. V. Ortiz, J. Cioslowski, 
 and D. J. Fox, Gaussian, Inc., Wallingford CT, 2013.
 
 ******************************************
 Gaussian 09:  ES64L-G09RevD.01 24-Apr-2013
                 6-Apr-2023 
 ******************************************
 %NProcShared=8
 Will use up to    8 processors via shared memory.
 -------------------
 #P bmk/6-31+g force
 -------------------
 1/10=7,30=1,38=1/1,3;
 2/12=2,17=6,18=5,40=1/2;
 3/5=1,6=6,7=10,11=2,16=1,25=1,30=1,71=1,74=-34/1,2,3;
 4//1;
 5/5=2,38=5/2;
 6/7=2,8=2,9=2,10=2,28=1/1;
 7/29=1/1,2,3,16;
 1/10=7,30=1/3;
 99//99;
 Leave Link    1 at Thu Apr  6 12:01:33 2023, MaxMem=           0 cpu:         0.4
 (Enter /hits/basement/its/doserbd/software/gaussian/g09d1/g09/l101.exe)
 ------------------------------
 Gaussian input prepared by ASE
 ------------------------------
 Symbolic Z-matrix:
 Charge =  0 Multiplicity = 1
 C
 H                    1    R2
 H                    1    R3       2    A3
 H                    1    R4       2    A4       3    D4       0
 C                    1    R5       2    A5       3    D5       0
 O                    5    R6       1    A6       2    D6       0
 N                    5    R7       1    A7       6    D7       0
 H                    7    R8       5    A8       1    D8       0
 C                    7    R9       5    A9       8    D9       0
 H                    9    R10      7    A10      5    D10      0
 H                    9    R11      7    A11      10   D11      0
 C                    9    R12      7    A12      10   D12      0
 O                    12   R13      9    A13      7    D13      0
 N                    12   R14      9    A14      13   D14      0
 C                    14   R15      12   A15      9    D15      0
 H                    15   R16      14   A16      12   D16      0
 H                    15   R17      14   A17      16   D17      0
 C                    15   R18      14   A18      16   D18      0
 H                    18   R19      15   A19      14   D19      0
 H                    18   R20      15   A20      19   D20      0
 C                    18   R21      15   A21      19   D21      0
 H                    21   R22      18   A22      15   D22      0
 H                    21   R23      18   A23      22   D23      0
 C                    14   R24      12   A24      15   D24      0
 H                    24   R25      14   A25      12   D25      0
 C                    24   R26      14   A26      25   D26      0
 O                    26   R27      24   A27      14   D27      0
 N                    26   R28      24   A28      27   D28      0
 H                    28   R29      26   A29      24   D29      0
 C                    28   R30      26   A30      29   D30      0
 H                    30   R31      28   A31      26   D31      0
 C                    30   R32      28   A32      31   D32      0
 H                    32   R33      30   A33      28   D33      0
 H                    32   R34      30   A34      33   D34      0
 H                    32   R35      30   A35      33   D35      0
 C                    30   R36      28   A36      31   D36      0
 O                    36   R37      30   A37      28   D37      0
 N                    36   R38      30   A38      37   D38      0
 H                    38   R39      36   A39      30   D39      0
 C                    38   R40      36   A40      39   D40      0
 H                    40   R41      38   A41      36   D41      0
 H                    40   R42      38   A42      41   D42      0
 H                    40   R43      38   A43      41   D43      0
       Variables:
  R2                    1.09559                  
  R3                    1.09674                  
  R4                    1.09688                  
  R5                    1.51948                  
  R6                    1.24826                  
  R7                    1.35875                  
  R8                    1.01266                  
  R9                    1.44726                  
  R10                   1.10169                  
  R11                   1.10133                  
  R12                   1.5264                   
  R13                   1.25458                  
  R14                   1.35094                  
  R15                   1.48073                  
  R16                   1.0971                   
  R17                   1.10064                  
  R18                   1.5473                   
  R19                   1.09645                  
  R20                   1.0958                   
  R21                   1.55061                  
  R22                   1.09339                  
  R23                   1.09852                  
  R24                   1.48195                  
  R25                   1.09721                  
  R26                   1.54789                  
  R27                   1.25029                  
  R28                   1.35191                  
  R29                   1.01973                  
  R30                   1.45657                  
  R31                   1.09892                  
  R32                   1.55237                  
  R33                   1.0981                   
  R34                   1.09642                  
  R35                   1.09741                  
  R36                   1.53341                  
  R37                   1.24442                  
  R38                   1.35762                  
  R39                   1.00856                  
  R40                   1.46106                  
  R41                   1.09376                  
  R42                   1.09657                  
  R43                   1.09709                  
  A3                  109.27593                  
  A4                  109.26488                  
  A5                  112.84934                  
  A6                  121.9418                   
  A7                  116.67573                  
  A8                  123.04784                  
  A9                  120.88441                  
  A10                 110.61482                  
  A11                 110.372                    
  A12                 108.6632                   
  A13                 120.8692                   
  A14                 116.89148                  
  A15                 125.53624                  
  A16                 110.90399                  
  A17                 109.85696                  
  A18                 103.41574                  
  A19                 110.47133                  
  A20                 111.70239                  
  A21                 103.68871                  
  A22                 112.03577                  
  A23                 110.82132                  
  A24                 121.09142                  
  A25                 108.51019                  
  A26                 110.86056                  
  A27                 121.43928                  
  A28                 115.84734                  
  A29                 121.15693                  
  A30                 120.85681                  
  A31                 107.69634                  
  A32                 111.52959                  
  A33                 111.03835                  
  A34                 108.83123                  
  A35                 109.74333                  
  A36                 107.99146                  
  A37                 121.68722                  
  A38                 115.84409                  
  A39                 119.72953                  
  A40                 121.21213                  
  A41                 108.89241                  
  A42                 110.28507                  
  A43                 110.61928                  
  D4                 -117.60372                  
  D5                  121.21875                  
  D6                 -179.60442                  
  D7                 -179.89581                  
  D8                   -0.09515                  
  D9                  179.76276                  
  D10                  60.33725                  
  D11                -117.39678                  
  D12                 121.19596                  
  D13                  -1.31582                  
  D14                 179.91511                  
  D15                  -3.40734                  
  D16                  60.14437                  
  D17                -120.11385                  
  D18                 120.90466                  
  D19                 -89.42387                  
  D20                -121.40692                  
  D21                 116.80542                  
  D22                -157.62942                  
  D23                -122.73606                  
  D24                -171.0978                   
  D25                  35.64879                  
  D26                -119.7406                   
  D27                -104.63663                  
  D28                -179.45763                  
  D29                  -3.48839                  
  D30                -176.45751                  
  D31                 -38.29076                  
  D32                 119.38145                  
  D33                -178.34608                  
  D34                 119.68157                  
  D35                -120.45619                  
  D36                -119.1922                   
  D37                 -26.04095                  
  D38                -177.83631                  
  D39                  -5.00509                  
  D40                -178.48874                  
  D41                -177.31313                  
  D42                 120.16756                  
  D43                -120.38679                  
 
 NAtoms=     43 NQM=       43 NQMF=       0 NMMI=      0 NMMIF=      0
                NMic=       0 NMicF=      0.
                    Isotopes and Nuclear Properties:
 (Nuclear quadrupole moments (NQMom) in fm**2, nuclear magnetic moments (NMagM)
  in nuclear magnetons)

  Atom         1           2           3           4           5           6           7           8           9          10
 IAtWgt=          12           1           1           1          12          16          14           1          12           1
 AtmWgt=  12.0000000   1.0078250   1.0078250   1.0078250  12.0000000  15.9949146  14.0030740   1.0078250  12.0000000   1.0078250
 NucSpn=           0           1           1           1           0           0           2           1           0           1
 AtZEff=   0.0000000   0.0000000   0.0000000   0.0000000   0.0000000   0.0000000   0.0000000   0.0000000   0.0000000   0.0000000
 NQMom=    0.0000000   0.0000000   0.0000000   0.0000000   0.0000000   0.0000000   2.0440000   0.0000000   0.0000000   0.0000000
 NMagM=    0.0000000   2.7928460   2.7928460   2.7928460   0.0000000   0.0000000   0.4037610   2.7928460   0.0000000   2.7928460
 AtZNuc=   6.0000000   1.0000000   1.0000000   1.0000000   6.0000000   8.0000000   7.0000000   1.0000000   6.0000000   1.0000000

  Atom        11          12          13          14          15          16          17          18          19          20
 IAtWgt=           1          12          16          14          12           1           1          12           1           1
 AtmWgt=   1.0078250  12.0000000  15.9949146  14.0030740  12.0000000   1.0078250   1.0078250  12.0000000   1.0078250   1.0078250
 NucSpn=           1           0           0           2           0           1           1           0           1           1
 AtZEff=   0.0000000   0.0000000   0.0000000   0.0000000   0.0000000   0.0000000   0.0000000   0.0000000   0.0000000   0.0000000
 NQMom=    0.0000000   0.0000000   0.0000000   2.0440000   0.0000000   0.0000000   0.0000000   0.0000000   0.0000000   0.0000000
 NMagM=    2.7928460   0.0000000   0.0000000   0.4037610   0.0000000   2.7928460   2.7928460   0.0000000   2.7928460   2.7928460
 AtZNuc=   1.0000000   6.0000000   8.0000000   7.0000000   6.0000000   1.0000000   1.0000000   6.0000000   1.0000000   1.0000000

  Atom        21          22          23          24          25          26          27          28          29          30
 IAtWgt=          12           1           1          12           1          12          16          14           1          12
 AtmWgt=  12.0000000   1.0078250   1.0078250  12.0000000   1.0078250  12.0000000  15.9949146  14.0030740   1.0078250  12.0000000
 NucSpn=           0           1           1           0           1           0           0           2           1           0
 AtZEff=   0.0000000   0.0000000   0.0000000   0.0000000   0.0000000   0.0000000   0.0000000   0.0000000   0.0000000   0.0000000
 NQMom=    0.0000000   0.0000000   0.0000000   0.0000000   0.0000000   0.0000000   0.0000000   2.0440000   0.0000000   0.0000000
 NMagM=    0.0000000   2.7928460   2.7928460   0.0000000   2.7928460   0.0000000   0.0000000   0.4037610   2.7928460   0.0000000
 AtZNuc=   6.0000000   1.0000000   1.0000000   6.0000000   1.0000000   6.0000000   8.0000000   7.0000000   1.0000000   6.0000000

  Atom        31          32          33          34          35          36          37          38          39          40
 IAtWgt=           1          12           1           1           1          12          16          14           1          12
 AtmWgt=   1.0078250  12.0000000   1.0078250   1.0078250   1.0078250  12.0000000  15.9949146  14.0030740   1.0078250  12.0000000
 NucSpn=           1           0           1           1           1           0           0           2           1           0
 AtZEff=   0.0000000   0.0000000   0.0000000   0.0000000   0.0000000   0.0000000   0.0000000   0.0000000   0.0000000   0.0000000
 NQMom=    0.0000000   0.0000000   0.0000000   0.0000000   0.0000000   0.0000000   0.0000000   2.0440000   0.0000000   0.0000000
 NMagM=    2.7928460   0.0000000   2.7928460   2.7928460   2.7928460   0.0000000   0.0000000   0.4037610   2.7928460   0.0000000
 AtZNuc=   1.0000000   6.0000000   1.0000000   1.0000000   1.0000000   6.0000000   8.0000000   7.0000000   1.0000000   6.0000000

  Atom        41          42          43
 IAtWgt=           1           1           1
 AtmWgt=   1.0078250   1.0078250   1.0078250
 NucSpn=           1           1           1
 AtZEff=   0.0000000   0.0000000   0.0000000
 NQMom=    0.0000000   0.0000000   0.0000000
 NMagM=    2.7928460   2.7928460   2.7928460
 AtZNuc=   1.0000000   1.0000000   1.0000000
 Leave Link  101 at Thu Apr  6 12:01:33 2023, MaxMem=    33554432 cpu:         1.3
 (Enter /hits/basement/its/doserbd/software/gaussian/g09d1/g09/l103.exe)

 GradGradGradGradGradGradGradGradGradGradGradGradGradGradGradGradGradGrad
 Berny optimization.
 Initialization pass.
                       ----------------------------
                       !    Initial Parameters    !
                       ! (Angstroms and Degrees)  !
 ----------------------                            ----------------------
 !      Name          Value   Derivative information (Atomic Units)     !
 ------------------------------------------------------------------------
 !       R2          1.0956   estimate D2E/DX2                          !
 !       R3          1.0967   estimate D2E/DX2                          !
 !       R4          1.0969   estimate D2E/DX2                          !
 !       R5          1.5195   estimate D2E/DX2                          !
 !       R6          1.2483   estimate D2E/DX2                          !
 !       R7          1.3588   estimate D2E/DX2                          !
 !       R8          1.0127   estimate D2E/DX2                          !
 !       R9          1.4473   estimate D2E/DX2                          !
 !       R10         1.1017   estimate D2E/DX2                          !
 !       R11         1.1013   estimate D2E/DX2                          !
 !       R12         1.5264   estimate D2E/DX2                          !
 !       R13         1.2546   estimate D2E/DX2                          !
 !       R14         1.3509   estimate D2E/DX2                          !
 !       R15         1.4807   estimate D2E/DX2                          !
 !       R16         1.0971   estimate D2E/DX2                          !
 !       R17         1.1006   estimate D2E/DX2                          !
 !       R18         1.5473   estimate D2E/DX2                          !
 !       R19         1.0965   estimate D2E/DX2                          !
 !       R20         1.0958   estimate D2E/DX2                          !
 !       R21         1.5506   estimate D2E/DX2                          !
 !       R22         1.0934   estimate D2E/DX2                          !
 !       R23         1.0985   estimate D2E/DX2                          !
 !       R24         1.482    estimate D2E/DX2                          !
 !       R25         1.0972   estimate D2E/DX2                          !
 !       R26         1.5479   estimate D2E/DX2                          !
 !       R27         1.2503   estimate D2E/DX2                          !
 !       R28         1.3519   estimate D2E/DX2                          !
 !       R29         1.0197   estimate D2E/DX2                          !
 !       R30         1.4566   estimate D2E/DX2                          !
 !       R31         1.0989   estimate D2E/DX2                          !
 !       R32         1.5524   estimate D2E/DX2                          !
 !       R33         1.0981   estimate D2E/DX2                          !
 !       R34         1.0964   estimate D2E/DX2                          !
 !       R35         1.0974   estimate D2E/DX2                          !
 !       R36         1.5334   estimate D2E/DX2                          !
 !       R37         1.2444   estimate D2E/DX2                          !
 !       R38         1.3576   estimate D2E/DX2                          !
 !       R39         1.0086   estimate D2E/DX2                          !
 !       R40         1.4611   estimate D2E/DX2                          !
 !       R41         1.0938   estimate D2E/DX2                          !
 !       R42         1.0966   estimate D2E/DX2                          !
 !       R43         1.0971   estimate D2E/DX2                          !
 !       A3        109.2759   estimate D2E/DX2                          !
 !       A4        109.2649   estimate D2E/DX2                          !
 !       A5        112.8493   estimate D2E/DX2                          !
 !       A6        121.9418   estimate D2E/DX2                          !
 !       A7        116.6757   estimate D2E/DX2                          !
 !       A8        123.0478   estimate D2E/DX2                          !
 !       A9        120.8844   estimate D2E/DX2                          !
 !       A10       110.6148   estimate D2E/DX2                          !
 !       A11       110.372    estimate D2E/DX2                          !
 !       A12       108.6632   estimate D2E/DX2                          !
 !       A13       120.8692   estimate D2E/DX2                          !
 !       A14       116.8915   estimate D2E/DX2                          !
 !       A15       125.5362   estimate D2E/DX2                          !
 !       A16       110.904    estimate D2E/DX2                          !
 !       A17       109.857    estimate D2E/DX2                          !
 !       A18       103.4157   estimate D2E/DX2                          !
 !       A19       110.4713   estimate D2E/DX2                          !
 !       A20       111.7024   estimate D2E/DX2                          !
 !       A21       103.6887   estimate D2E/DX2                          !
 !       A22       112.0358   estimate D2E/DX2                          !
 !       A23       110.8213   estimate D2E/DX2                          !
 !       A24       121.0914   estimate D2E/DX2                          !
 !       A25       108.5102   estimate D2E/DX2                          !
 !       A26       110.8606   estimate D2E/DX2                          !
 !       A27       121.4393   estimate D2E/DX2                          !
 !       A28       115.8473   estimate D2E/DX2                          !
 !       A29       121.1569   estimate D2E/DX2                          !
 !       A30       120.8568   estimate D2E/DX2                          !
 !       A31       107.6963   estimate D2E/DX2                          !
 !       A32       111.5296   estimate D2E/DX2                          !
 !       A33       111.0384   estimate D2E/DX2                          !
 !       A34       108.8312   estimate D2E/DX2                          !
 !       A35       109.7433   estimate D2E/DX2                          !
 !       A36       107.9915   estimate D2E/DX2                          !
 !       A37       121.6872   estimate D2E/DX2                          !
 !       A38       115.8441   estimate D2E/DX2                          !
 !       A39       119.7295   estimate D2E/DX2                          !
 !       A40       121.2121   estimate D2E/DX2                          !
 !       A41       108.8924   estimate D2E/DX2                          !
 !       A42       110.2851   estimate D2E/DX2                          !
 !       A43       110.6193   estimate D2E/DX2                          !
 !       D4       -117.6037   estimate D2E/DX2                          !
 !       D5        121.2188   estimate D2E/DX2                          !
 !       D6       -179.6044   estimate D2E/DX2                          !
 !       D7       -179.8958   estimate D2E/DX2                          !
 !       D8         -0.0951   estimate D2E/DX2                          !
 !       D9        179.7628   estimate D2E/DX2                          !
 !       D10        60.3372   estimate D2E/DX2                          !
 !       D11      -117.3968   estimate D2E/DX2                          !
 !       D12       121.196    estimate D2E/DX2                          !
 !       D13        -1.3158   estimate D2E/DX2                          !
 !       D14       179.9151   estimate D2E/DX2                          !
 !       D15        -3.4073   estimate D2E/DX2                          !
 !       D16        60.1444   estimate D2E/DX2                          !
 !       D17      -120.1139   estimate D2E/DX2                          !
 !       D18       120.9047   estimate D2E/DX2                          !
 !       D19       -89.4239   estimate D2E/DX2                          !
 !       D20      -121.4069   estimate D2E/DX2                          !
 !       D21       116.8054   estimate D2E/DX2                          !
 !       D22      -157.6294   estimate D2E/DX2                          !
 !       D23      -122.7361   estimate D2E/DX2                          !
 !       D24      -171.0978   estimate D2E/DX2                          !
 !       D25        35.6488   estimate D2E/DX2                          !
 !       D26      -119.7406   estimate D2E/DX2                          !
 !       D27      -104.6366   estimate D2E/DX2                          !
 !       D28      -179.4576   estimate D2E/DX2                          !
 !       D29        -3.4884   estimate D2E/DX2                          !
 !       D30      -176.4575   estimate D2E/DX2                          !
 !       D31       -38.2908   estimate D2E/DX2                          !
 !       D32       119.3815   estimate D2E/DX2                          !
 !       D33      -178.3461   estimate D2E/DX2                          !
 !       D34       119.6816   estimate D2E/DX2                          !
 !       D35      -120.4562   estimate D2E/DX2                          !
 !       D36      -119.1922   estimate D2E/DX2                          !
 !       D37       -26.0409   estimate D2E/DX2                          !
 !       D38      -177.8363   estimate D2E/DX2                          !
 !       D39        -5.0051   estimate D2E/DX2                          !
 !       D40      -178.4887   estimate D2E/DX2                          !
 !       D41      -177.3131   estimate D2E/DX2                          !
 !       D42       120.1676   estimate D2E/DX2                          !
 !       D43      -120.3868   estimate D2E/DX2                          !
 ------------------------------------------------------------------------
 Trust Radius=3.00D-01 FncErr=1.00D-07 GrdErr=1.00D-07
 Number of steps in this run=      2 maximum allowed number of steps=      2.
 GradGradGradGradGradGradGradGradGradGradGradGradGradGradGradGradGradGrad

 Leave Link  103 at Thu Apr  6 12:01:33 2023, MaxMem=    33554432 cpu:         0.1
 (Enter /hits/basement/its/doserbd/software/gaussian/g09d1/g09/l202.exe)
                          Input orientation:                          
 ---------------------------------------------------------------------
 Center     Atomic      Atomic             Coordinates (Angstroms)
 Number     Number       Type             X           Y           Z
 ---------------------------------------------------------------------
      1          6           0        0.000000    0.000000    0.000000
      2          1           0        0.000000    0.000000    1.095591
      3          1           0        1.035260    0.000000   -0.362055
      4          1           0       -0.479782    0.917594   -0.361899
      5          6           0       -0.725755   -1.197479   -0.590026
      6          8           0       -0.821747   -1.369973   -1.822576
      7          7           0       -1.270518   -2.075893    0.291916
      8          1           0       -1.207985   -1.960718    1.296061
      9          6           0       -1.988228   -3.244409   -0.170720
     10          1           0       -1.330622   -3.889487   -0.774995
     11          1           0       -2.820356   -2.947781   -0.828364
     12          6           0       -2.509967   -4.009364    1.042754
     13          8           0       -2.269834   -3.609862    2.207535
     14          7           0       -3.235170   -5.122528    0.797831
     15          6           0       -3.623535   -5.619191   -0.541972
     16          1           0       -2.737236   -5.834711   -1.151614
     17          1           0       -4.231042   -4.861522   -1.059924
     18          6           0       -4.451682   -6.888026   -0.228325
     19          1           0       -3.800147   -7.768471   -0.178030
     20          1           0       -5.227174   -7.062471   -0.982615
     21          6           0       -5.035117   -6.606461    1.180471
     22          1           0       -5.309465   -7.527233    1.702396
     23          1           0       -5.909960   -5.945248    1.115793
     24          6           0       -3.887859   -5.868474    1.899535
     25          1           0       -4.234214   -5.147778    2.650877
     26          6           0       -2.894342   -6.852483    2.563311
     27          8           0       -2.952317   -8.082600    2.347269
     28          7           0       -1.979703   -6.298280    3.390326
     29          1           0       -1.925183   -5.287703    3.515262
     30          6           0       -0.991562   -7.123460    4.071679
     31          1           0       -1.486295   -8.057679    4.371846
     32          6           0        0.203942   -7.464961    3.142160
     33          1           0        0.929354   -8.111066    3.654165
     34          1           0       -0.174405   -7.991299    2.257871
     35          1           0        0.707891   -6.540869    2.831689
     36          6           0       -0.504780   -6.356515    5.307069
     37          8           0       -0.540369   -5.113773    5.360942
     38          7           0        0.005834   -7.114474    6.311007
     39          1           0       -0.024445   -8.120308    6.243367
     40          6           0        0.572678   -6.500968    7.509759
     41          1           0        0.965261   -7.288816    8.158979
     42          1           0        1.382431   -5.813195    7.238224
     43          1           0       -0.192132   -5.928778    8.049458
 ---------------------------------------------------------------------
                    Distance matrix (angstroms):
                    1          2          3          4          5
     1  C    0.000000
     2  H    1.095591   0.000000
     3  H    1.096743   1.787874   0.000000
     4  H    1.096878   1.787862   1.771251   0.000000
     5  C    1.519476   2.191343   2.141751   2.141513   0.000000
     6  O    2.423608   3.326829   2.731011   2.735595   1.248257
     7  N    2.451278   2.563092   3.170744   3.164444   1.358750
     8  H    2.642615   2.311673   3.409679   3.400557   2.091030
     9  C    3.808987   4.010335   4.438949   4.431052   2.441225
    10  H    4.183215   4.516388   4.571217   4.899246   2.765319
    11  H    4.162932   4.510590   4.875718   4.542796   2.740021
    12  C    4.843787   4.730510   5.533274   5.510863   3.708919
    13  O    4.801715   4.406775   5.527887   5.504919   4.003764
    14  N    6.110904   6.065911   6.769209   6.739452   4.861000
    15  C    6.708132   6.883816   7.301509   7.255698   5.286868
    16  H    6.546948   6.825412   6.992781   7.163335   5.085800
    17  H    6.531428   6.795760   7.201066   6.925126   5.092451
    18  C    8.204542   8.307534   8.807344   8.759083   6.811438
    19  H    8.649969   8.741417   9.152277   9.300880   7.266331
    20  H    8.841232   9.028887   9.459475   9.306152   7.403718
    21  C    8.389949   8.306921   9.103526   8.929803   7.138792
    22  H    9.367380   9.231352  10.058664   9.944961   8.144408
    23  H    8.456866   8.382959   9.260997   8.875190   7.233748
    24  C    7.291273   7.085249   7.986919   7.923370   6.165632
    25  H    7.173237   6.844494   7.958940   7.743469   6.198194
    26  C    7.867929   7.582080   8.423542   8.646447   6.828278
    27  O    8.919320   8.695475   9.411143   9.718874   7.809621
    28  N    7.421715   6.989518   7.927086   8.270296   6.590430
    29  H    6.634998   6.125434   7.194276   7.458369   5.917935
    30  C    8.264712   7.783571   8.631900   9.196581   7.544496
    31  H    9.286996   8.824347   9.679579  10.196908   8.500644
    32  C    8.101877   7.743105   8.288320   9.111155   7.353563
    33  H    8.944608   8.555664   9.051554   9.981540   8.279507
    34  H    8.305977   8.077263   8.496362   9.291116   7.387185
    35  H    7.162579   6.804272   7.286298   8.199893   6.505021
    36  C    8.296087   7.641769   8.655401   9.222282   7.838381
    37  O    7.428484   6.681009   7.834920   8.314564   7.126412
    38  N    9.510236   8.821357   9.808426  10.453594   9.119776
    39  H   10.243028   9.614551  10.521120  11.203595   9.752572
    40  C    9.949222   9.150524  10.219688  10.867647   9.768288
    41  H   10.983055  10.195588  11.213374  11.917998  10.793934
    42  H    9.385960   8.569497   9.574863  10.321494   9.329029
    43  H    9.999055   9.140218  10.363901  10.849262   9.864615
                    6          7          8          9         10
     6  O    0.000000
     7  N    2.273938   0.000000
     8  H    3.197507   1.012660   0.000000
     9  C    2.757320   1.447263   2.099544   0.000000
    10  H    2.775668   2.105003   2.832748   1.101689   0.000000
    11  H    2.733564   2.101717   2.843802   1.101327   1.763226
    12  C    4.245773   2.416257   2.440547   1.526397   2.170123
    13  O    4.832789   2.649771   2.162865   2.422593   3.139394
    14  N    5.174245   3.660299   3.788767   2.453628   2.760701
    15  C    5.248410   4.334399   4.753700   2.907171   2.881600
    16  H    4.904404   4.285295   4.830895   2.869291   2.429877
    17  H    4.939215   4.283912   4.806683   2.904471   3.072209
    18  C    6.794628   5.791984   6.092921   4.398621   4.362464
    19  H    7.246805   6.247025   6.528571   4.873422   4.636964
    20  H    7.246921   6.491958   6.882887   5.072233   5.029319
    21  C    7.361493   5.957162   6.020235   4.734200   4.992902
    22  H    8.395051   6.929621   6.926278   5.734262   5.933114
    23  H    7.446949   6.097138   6.165836   4.932507   5.363913
    24  C    6.594821   4.880428   4.776658   3.844512   4.196302
    25  H    6.777058   4.876952   4.599015   4.077828   4.663769
    26  C    7.320490   5.532797   5.327203   4.616727   4.729571
    27  O    8.184515   6.567606   6.451757   5.538757   5.473629
    28  N    7.266595   5.285038   4.878108   4.691188   4.855253
    29  H    6.712577   4.597202   4.063011   4.214913   4.551353
    30  C    8.238549   6.312080   5.865561   5.834238   5.836419
    31  H    9.139907   7.243904   6.834533   6.637350   6.624803
    32  C    7.927769   6.272159   5.974807   5.796020   5.521141
    33  H    8.860213   7.250342   6.925002   6.842980   6.522781
    34  H    7.804553   6.329176   6.193648   5.632138   5.230676
    35  H    7.123211   5.504594   5.196780   5.210582   4.918692
    36  C    8.706199   6.637908   5.992138   6.472402   6.615114
    37  O    8.105438   5.954565   5.187555   6.015821   6.306591
    38  N    9.991964   7.952724   7.292753   7.808103   7.899245
    39  H   10.548087   8.573646   7.988564   8.292849   8.298394
    40  C   10.740763   8.664635   7.899030   8.726579   8.892667
    41  H   11.741274   9.698657   8.956075   9.719270   9.830686
    42  H   10.329507   8.322064   7.540633   8.535365   8.676000
    43  H   10.892023   8.728521   7.898470   8.831938   9.128298
                   11         12         13         14         15
    11  H    0.000000
    12  C    2.173564   0.000000
    13  O    3.155647   1.254584   0.000000
    14  N    2.747018   1.350941   2.281950   0.000000
    15  C    2.804202   2.518518   3.664655   1.480734   0.000000
    16  H    2.906160   2.863354   4.056144   2.134357   1.097104
    17  H    2.388736   2.847723   4.011144   2.123944   1.100636
    18  C    4.306600   3.697647   4.630360   2.376948   1.547303
    19  H    4.962054   4.157615   5.032575   2.876199   2.187019
    20  H    4.769407   4.561447   5.553687   3.301735   2.202019
    21  C    4.725095   3.624950   4.204909   2.363954   2.435996
    22  H    5.794117   4.543976   4.984006   3.302051   3.394138
    23  H    4.723368   3.913174   4.460543   2.816464   2.842927
    24  C    4.136598   2.467580   2.795389   1.481954   2.468393
    25  H    4.352482   2.618220   2.533875   2.105352   3.284729
    26  C    5.172585   3.247024   3.321322   2.495161   3.419871
    27  O    6.038909   4.299847   4.526664   3.353027   3.855727
    28  N    5.452511   3.321356   2.951399   3.111208   4.315821
    29  H    5.014345   2.844190   2.155014   3.021222   4.410832
    30  C    6.692624   4.601906   4.177845   4.444726   5.520497
    31  H    7.411677   5.340376   5.008118   4.944417   5.887243
    32  C    6.731743   4.869698   4.674921   4.776020   5.623991
    33  H    7.798263   5.955867   5.708623   5.867986   6.674264
    34  H    6.477884   4.773591   4.856990   4.441829   5.036121
    35  H    6.225335   4.468044   4.224596   4.657897   5.567076
    36  C    7.390865   5.264435   4.501847   5.413961   6.669449
    37  O    6.942432   4.872964   3.898303   5.299434   6.678753
    38  N    8.736092   6.612522   5.856573   6.698288   7.897564
    39  H    9.196822   7.079834   6.455527   6.996377   8.077738
    40  C    9.677919   7.585047   6.674724   7.838991   9.122286
    41  H   10.674634   8.571620   7.708451   8.747738   9.977537
    42  H    9.536449   7.535809   6.595570   7.954742   9.253582
    43  H    9.726748   7.625641   6.619839   7.905454   9.256513
                   16         17         18         19         20
    16  H    0.000000
    17  H    1.785206   0.000000
    18  C    2.213879   2.201580   0.000000
    19  H    2.411861   3.068185   1.096454   0.000000
    20  H    2.781321   2.417113   1.095798   1.783873   0.000000
    21  C    3.363699   2.951393   1.550606   2.172773   2.218958
    22  H    4.198376   3.987408   2.207274   2.423270   2.726180
    23  H    3.901221   2.954144   2.195918   3.073993   2.473399
    24  C    3.261071   3.144856   2.425936   2.816728   3.395023
    25  H    4.143882   3.721827   3.371285   3.880614   4.225434
    26  C    3.855024   4.344942   3.196842   3.028938   4.249682
    27  O    4.164306   4.859984   3.210730   2.682281   4.159780
    28  N    4.627955   5.190137   4.421890   4.267158   5.500243
    29  H    4.768478   5.141103   4.791521   4.828054   5.855242
    30  C    5.656063   6.476415   5.524300   5.134610   6.594697
    31  H    6.083999   6.874095   5.596711   5.112624   6.607183
    32  C    5.453874   6.641121   5.776492   5.210423   6.831749
    33  H    6.459193   7.707908   6.747229   6.096824   7.778311
    34  H    4.779494   6.104062   5.068874   4.373702   6.074039
    35  H    5.313592   6.508296   6.008777   5.557682   7.074319
    36  C    6.853519   7.527192   6.819173   6.552814   7.896804
    37  O    6.910814   7.410277   7.048846   6.953688   8.124302
    38  N    8.053132   8.795313   7.917297   7.551212   8.976860
    39  H    8.201763   9.036216   7.937363   7.457482   8.966729
    40  C    9.296171   9.960069   9.234281   8.934778  10.299223
    41  H   10.124724  10.857324   9.992535   9.614827  11.043832
    42  H    9.346737  10.063599   9.536324   9.256513  10.622136
    43  H    9.547048  10.021610   9.358718   9.170267  10.402656
                   21         22         23         24         25
    21  C    0.000000
    22  H    1.093386   0.000000
    23  H    1.098516   1.790914   0.000000
    24  C    1.542037   2.193469   2.170031   0.000000
    25  H    2.220653   2.778055   2.408437   1.097215   0.000000
    26  C    2.560408   2.651279   3.465881   1.547885   2.170010
    27  O    2.806859   2.506081   3.851293   2.445007   3.216927
    28  N    3.783383   3.930235   4.554673   2.459319   2.636903
    29  H    4.106344   4.444698   4.697687   2.607675   2.469487
    30  C    4.997670   4.941743   5.857993   3.831676   4.054231
    31  H    4.988491   4.692970   5.884986   4.083192   4.356641
    32  C    5.659769   5.698636   6.617816   4.564617   5.030698
    33  H    6.630076   6.563012   7.609883   5.595846   6.037392
    34  H    5.167696   5.185822   6.195745   4.292381   4.972134
    35  H    5.976032   6.201354   6.862581   4.737293   5.137879
    36  C    6.133125   6.119578   6.852145   4.826458   4.735512
    37  O    6.317215   6.477192   6.895298   4.874074   4.581494
    38  N    7.210524   7.047132   7.959520   6.014520   5.936535
    39  H    7.282271   6.993110   8.103220   6.234228   6.282043
    40  C    8.456853   8.329363   9.122292   7.195211   6.967500
    41  H    9.228743   9.006469   9.933796   8.046787   7.871325
    42  H    8.860618   8.852389   9.522634   7.502041   7.282392
    43  H    8.431888   8.308270   8.987187   7.175207   6.789187
                   26         27         28         29         30
    26  C    0.000000
    27  O    1.250289   0.000000
    28  N    1.351909   2.284237   0.000000
    29  H    2.072201   3.198540   1.019729   0.000000
    30  C    2.443190   2.781743   1.456567   2.133367   0.000000
    31  H    2.589574   2.499750   2.074203   2.932427   1.098920
    32  C    3.210851   3.312899   2.488180   3.068034   1.552372
    33  H    4.170689   4.095870   3.437793   4.017344   2.199910
    34  H    2.964499   2.780849   2.721740   3.457700   2.170436
    35  H    3.625633   4.001089   2.755737   2.995125   2.182918
    36  C    3.672083   4.210726   2.419234   2.523980   1.533411
    37  O    4.048584   4.869665   2.712575   2.313978   2.429941
    38  N    4.746039   5.039756   3.624764   3.857734   2.451422
    39  H    4.835959   4.873749   3.909305   4.367953   2.577838
    40  C    6.050714   6.448135   4.850305   4.864907   3.828150
    41  H    6.811638   7.053614   5.691575   5.824365   4.534591
    42  H    6.420726   6.918213   5.132794   5.007684   4.168890
    43  H    6.184899   6.691227   5.003944   4.896261   4.229548
                   31         32         33         34         35
    31  H    0.000000
    32  C    2.172635   0.000000
    33  H    2.520571   1.098099   0.000000
    34  H    2.488845   1.096424   1.783890   0.000000
    35  H    3.080137   1.097407   1.786346   1.792055   0.000000
    36  C    2.175310   2.533332   2.804868   3.475525   2.762618
    37  O    3.246485   3.317390   3.749258   4.247721   3.160992
    38  N    2.622295   3.194320   2.984107   4.150809   3.595491
    39  H    2.375609   3.177912   2.759309   3.990402   3.830207
    40  C    4.063153   4.487891   4.193476   5.510131   4.680193
    41  H    4.576423   5.077312   4.579381   6.051065   5.385692
    42  H    4.635021   4.571095   4.281468   5.654360   4.516864
    43  H    4.442061   5.157354   5.033757   6.147909   5.330085
                   36         37         38         39         40
    36  C    0.000000
    37  O    1.244418   0.000000
    38  N    1.357616   2.281177   0.000000
    39  H    2.053860   3.175548   1.008560   0.000000
    40  C    2.456344   2.789373   1.461064   2.140693   0.000000
    41  H    3.341197   3.850552   2.089472   2.310945   1.093761
    42  H    2.754292   2.776786   2.109047   2.879551   1.096569
    43  H    2.793100   2.830834   2.113594   2.844800   1.097092
                   41         42         43
    41  H    0.000000
    42  H    1.788653   0.000000
    43  H    1.789206   1.775023   0.000000
 Stoichiometry    C13H22N4O4
 Framework group  C1[X(C13H22N4O4)]
 Deg. of freedom   123
 Full point group                 C1      NOp   1
 Largest Abelian subgroup         C1      NOp   1
 Largest concise Abelian subgroup C1      NOp   1
                         Standard orientation:                         
 ---------------------------------------------------------------------
 Center     Atomic      Atomic             Coordinates (Angstroms)
 Number     Number       Type             X           Y           Z
 ---------------------------------------------------------------------
      1          6           0       -4.549493   -3.572330   -0.161340
      2          1           0       -3.703821   -3.972082   -0.731741
      3          1           0       -4.690546   -4.172612    0.745640
      4          1           0       -5.463308   -3.656289   -0.762200
      5          6           0       -4.357672   -2.118777    0.237651
      6          8           0       -5.214680   -1.496733    0.898517
      7          7           0       -3.203772   -1.523477   -0.162770
      8          1           0       -2.491913   -2.003817   -0.699437
      9          6           0       -2.930547   -0.139628    0.161078
     10          1           0       -2.908113    0.006107    1.252855
     11          1           0       -3.733794    0.509460   -0.221544
     12          6           0       -1.588185    0.249739   -0.452391
     13          8           0       -0.905309   -0.586959   -1.090826
     14          7           0       -1.182315    1.525947   -0.274619
     15          6           0       -1.959716    2.590183    0.400380
     16          1           0       -2.177839    2.316075    1.440056
     17          1           0       -2.911662    2.750325   -0.128348
     18          6           0       -1.039700    3.829639    0.293311
     19          1           0       -0.366534    3.883302    1.157128
     20          1           0       -1.617182    4.759068    0.234568
     21          6           0       -0.205278    3.557922   -0.985083
     22          1           0        0.733208    4.118918   -0.989332
     23          1           0       -0.783140    3.800186   -1.887369
     24          6           0        0.044450    2.037229   -0.930230
     25          1           0        0.130151    1.571870   -1.920168
     26          6           0        1.301245    1.687805   -0.096973
     27          8           0        1.891306    2.552241    0.586986
     28          7           0        1.717429    0.403534   -0.168370
     29          1           0        1.193038   -0.292329   -0.698121
     30          6           0        2.888355   -0.044640    0.573022
     31          1           0        3.634563    0.761319    0.537966
     32          6           0        2.542965   -0.344522    2.056476
     33          1           0        3.436742   -0.653435    2.614650
     34          1           0        2.136953    0.564385    2.516028
     35          1           0        1.796329   -1.147111    2.108329
     36          6           0        3.430326   -1.304006   -0.113720
     37          8           0        2.694733   -2.050723   -0.784460
     38          7           0        4.744624   -1.572750    0.094888
     39          1           0        5.313535   -0.917813    0.609273
     40          6           0        5.364389   -2.782509   -0.440912
     41          1           0        6.407682   -2.820233   -0.114679
     42          1           0        4.835575   -3.672599   -0.079582
     43          1           0        5.323081   -2.784722   -1.537224
 ---------------------------------------------------------------------
 Rotational constants (GHZ):      0.3435076      0.1721308      0.1243845
 Leave Link  202 at Thu Apr  6 12:01:33 2023, MaxMem=    33554432 cpu:         0.1
 (Enter /hits/basement/its/doserbd/software/gaussian/g09d1/g09/l301.exe)
 Standard basis: 6-31+G (6D, 7F)
 Ernie: Thresh=  0.10000D-02 Tol=  0.10000D-05 Strict=F.
 There are   317 symmetry adapted cartesian basis functions of A   symmetry.
 There are   317 symmetry adapted basis functions of A   symmetry.
   317 basis functions,   634 primitive gaussians,   317 cartesian basis functions
    80 alpha electrons       80 beta electrons
       nuclear repulsion energy      1750.8116745765 Hartrees.
 IExCor= 3226 DFT=T Ex+Corr=BMK ExCW=0 ScaHFX=  0.420000
 ScaDFX=  1.000000  1.000000  1.000000  1.000000 ScalE2=  1.000000  1.000000
 IRadAn=      0 IRanWt=     -1 IRanGd=            0 ICorTp=0 IEmpDi=  4
 NAtoms=   43 NActive=   43 NUniq=   43 SFac= 1.00D+00 NAtFMM=   60 NAOKFM=F Big=F
 Integral buffers will be    131072 words long.
 Raffenetti 2 integral format.
 Two-electron integral symmetry is turned on.
 Leave Link  301 at Thu Apr  6 12:01:33 2023, MaxMem=    33554432 cpu:         0.3
 (Enter /hits/basement/its/doserbd/software/gaussian/g09d1/g09/l302.exe)
 NPDir=0 NMtPBC=     1 NCelOv=     1 NCel=       1 NClECP=     1 NCelD=      1
         NCelK=      1 NCelE2=     1 NClLst=     1 CellRange=     0.0.
 One-electron integrals computed using PRISM.
 NBasis=   317 RedAO= T EigKep=  7.48D-06  NBF=   317
 NBsUse=   317 1.00D-06 EigRej= -1.00D+00 NBFU=   317
 Precomputing XC quadrature grid using
 IXCGrd= 4 IRadAn=           0 IRanWt=          -1 IRanGd=           0 AccXCQ= 0.00D+00.
 Generated NRdTot=       0 NPtTot=           0 NUsed=           0 NTot=          32
 NSgBfM=   312   312   312   312   312 MxSgAt=    43 MxSgA2=    43.
 Leave Link  302 at Thu Apr  6 12:01:33 2023, MaxMem=    33554432 cpu:         4.3
 (Enter /hits/basement/its/doserbd/software/gaussian/g09d1/g09/l303.exe)
 DipDrv:  MaxL=1.
 Leave Link  303 at Thu Apr  6 12:01:34 2023, MaxMem=    33554432 cpu:         0.5
 (Enter /hits/basement/its/doserbd/software/gaussian/g09d1/g09/l401.exe)
 ExpMin= 4.38D-02 ExpMax= 5.48D+03 ExpMxC= 8.25D+02 IAcc=2 IRadAn=         4 AccDes= 0.00D+00
 Harris functional with IExCor= 1009 and IRadAn=       4 diagonalized for initial guess.
 HarFok:  IExCor= 1009 AccDes= 0.00D+00 IRadAn=         4 IDoV= 1 UseB2=F ITyADJ=14
 ICtDFT=  3500011 ScaDFX=  1.000000  1.000000  1.000000  1.000000
 FoFCou: FMM=F IPFlag=           0 FMFlag=      100000 FMFlg1=           0
         NFxFlg=           0 DoJE=T BraDBF=F KetDBF=T FulRan=T
         wScrn=  0.000000 ICntrl=     500 IOpCl=  0 I1Cent=   200000004 NGrid=           0
         NMat0=    1 NMatS0=      1 NMatT0=    0 NMatD0=    1 NMtDS0=    0 NMtDT0=    0
 Petite list used in FoFCou.
 Harris En= -1027.40366733298    
 JPrj=0 DoOrth=F DoCkMO=F.
 Leave Link  401 at Thu Apr  6 12:01:35 2023, MaxMem=    33554432 cpu:        13.9
 (Enter /hits/basement/its/doserbd/software/gaussian/g09d1/g09/l502.exe)
 Closed shell SCF:
 Using DIIS extrapolation, IDIIS=  1040.
 Integral symmetry usage will be decided dynamically.
 IVT=      324986 IEndB=      324986 NGot=    33554432 MDV=    33346893
 LenX=    33346893 LenY=    33245963
 Requested convergence on RMS density matrix=1.00D-08 within 128 cycles.
 Requested convergence on MAX density matrix=1.00D-06.
 Requested convergence on             energy=1.00D-06.
 No special actions if energy rises.
 Fock matrices will be formed incrementally for  20 cycles.

 Cycle   1  Pass 1  IDiag  1:
 FoFJK:  IHMeth= 1 ICntrl=       0 DoSepK=F KAlg= 0 I1Cent=   0 FoldK=F
 IRaf= 800000000 NMat=   1 IRICut=       1 DoRegI=T DoRafI=F ISym2E= 0.
 FoFCou: FMM=F IPFlag=           0 FMFlag=      100000 FMFlg1=           0
         NFxFlg=           0 DoJE=F BraDBF=F KetDBF=F FulRan=T
         wScrn=  0.000000 ICntrl=       0 IOpCl=  0 I1Cent=           0 NGrid=           0
         NMat0=    1 NMatS0=      1 NMatT0=    0 NMatD0=    1 NMtDS0=    0 NMtDT0=    0
 Symmetry not used in FoFCou.
 E= -1027.26819525556    
 DIIS: error= 2.29D-02 at cycle   1 NSaved=   1.
 NSaved= 1 IEnMin= 1 EnMin= -1027.26819525556     IErMin= 1 ErrMin= 2.29D-02
 ErrMax= 2.29D-02  0.00D+00 EMaxC= 1.00D-01 BMatC= 5.46D-01 BMatP= 5.46D-01
 IDIUse=3 WtCom= 7.71D-01 WtEn= 2.29D-01
 Coeff-Com:  0.100D+01
 Coeff-En:   0.100D+01
 Coeff:      0.100D+01
 Gap=     0.327 Goal=   None    Shift=    0.000
 GapD=    0.327 DampG=1.000 DampE=0.500 DampFc=0.5000 IDamp=-1.
 Damping current iteration by 5.00D-01
 RMSDP=3.20D-02 MaxDP=3.65D+00              OVMax= 2.66D-01

 Cycle   2  Pass 1  IDiag  1:
 RMSU=  1.31D-02    CP:  1.19D+00
 E= -1027.42862905290     Delta-E=       -0.160433797334 Rises=F Damp=T
 DIIS: error= 9.46D-03 at cycle   2 NSaved=   2.
 NSaved= 2 IEnMin= 2 EnMin= -1027.42862905290     IErMin= 2 ErrMin= 9.46D-03
 ErrMax= 9.46D-03  0.00D+00 EMaxC= 1.00D-01 BMatC= 7.24D-02 BMatP= 5.46D-01
 IDIUse=3 WtCom= 9.05D-01 WtEn= 9.46D-02
 Coeff-Com:  0.198D+00 0.802D+00
 Coeff-En:   0.288D+00 0.712D+00
 Coeff:      0.206D+00 0.794D+00
 Gap=     0.322 Goal=   None    Shift=    0.000
 RMSDP=1.61D-02 MaxDP=1.77D+00 DE=-1.60D-01 OVMax= 1.35D-01

 Cycle   3  Pass 1  IDiag  1:
 RMSU=  7.60D-03    CP:  9.24D-01  5.37D-01
 E= -1027.72073229860     Delta-E=       -0.292103245698 Rises=F Damp=F
 DIIS: error= 1.04D-02 at cycle   3 NSaved=   3.
 NSaved= 3 IEnMin= 3 EnMin= -1027.72073229860     IErMin= 2 ErrMin= 9.46D-03
 ErrMax= 1.04D-02  0.00D+00 EMaxC= 1.00D-01 BMatC= 4.65D-02 BMatP= 7.24D-02
 IDIUse=3 WtCom= 8.96D-01 WtEn= 1.04D-01
 Coeff-Com:  0.547D-01 0.442D+00 0.503D+00
 Coeff-En:   0.000D+00 0.000D+00 0.100D+01
 Coeff:      0.490D-01 0.396D+00 0.555D+00
 Gap=     0.314 Goal=   None    Shift=    0.000
 RMSDP=3.00D-03 MaxDP=2.26D-01 DE=-2.92D-01 OVMax= 4.38D-02

 Cycle   4  Pass 1  IDiag  1:
 RMSU=  2.65D-03    CP:  9.49D-01  5.53D-01  9.11D-01
 E= -1027.75880954264     Delta-E=       -0.038077244039 Rises=F Damp=F
 DIIS: error= 2.93D-03 at cycle   4 NSaved=   4.
 NSaved= 4 IEnMin= 4 EnMin= -1027.75880954264     IErMin= 4 ErrMin= 2.93D-03
 ErrMax= 2.93D-03  0.00D+00 EMaxC= 1.00D-01 BMatC= 4.62D-03 BMatP= 4.65D-02
 IDIUse=3 WtCom= 9.71D-01 WtEn= 2.93D-02
 Coeff-Com:  0.955D-02 0.314D-01 0.243D+00 0.716D+00
 Coeff-En:   0.000D+00 0.000D+00 0.401D-01 0.960D+00
 Coeff:      0.927D-02 0.305D-01 0.237D+00 0.723D+00
 Gap=     0.306 Goal=   None    Shift=    0.000
 RMSDP=9.24D-04 MaxDP=5.76D-02 DE=-3.81D-02 OVMax= 1.11D-02

 Cycle   5  Pass 1  IDiag  1:
 RMSU=  5.49D-04    CP:  9.42D-01  5.35D-01  9.36D-01  7.85D-01
 E= -1027.76241491092     Delta-E=       -0.003605368286 Rises=F Damp=F
 DIIS: error= 7.25D-04 at cycle   5 NSaved=   5.
 NSaved= 5 IEnMin= 5 EnMin= -1027.76241491092     IErMin= 5 ErrMin= 7.25D-04
 ErrMax= 7.25D-04  0.00D+00 EMaxC= 1.00D-01 BMatC= 2.61D-04 BMatP= 4.62D-03
 IDIUse=3 WtCom= 9.93D-01 WtEn= 7.25D-03
 Coeff-Com:  0.302D-02-0.114D-01 0.901D-01 0.361D+00 0.558D+00
 Coeff-En:   0.000D+00 0.000D+00 0.000D+00 0.000D+00 0.100D+01
 Coeff:      0.299D-02-0.113D-01 0.895D-01 0.358D+00 0.561D+00
 Gap=     0.307 Goal=   None    Shift=    0.000
 RMSDP=2.31D-04 MaxDP=2.22D-02 DE=-3.61D-03 OVMax= 3.32D-03

 Cycle   6  Pass 1  IDiag  1:
 RMSU=  1.61D-04    CP:  9.39D-01  5.31D-01  9.45D-01  7.85D-01  9.51D-01
 E= -1027.76264208711     Delta-E=       -0.000227176193 Rises=F Damp=F
 DIIS: error= 2.05D-04 at cycle   6 NSaved=   6.
 NSaved= 6 IEnMin= 6 EnMin= -1027.76264208711     IErMin= 6 ErrMin= 2.05D-04
 ErrMax= 2.05D-04  0.00D+00 EMaxC= 1.00D-01 BMatC= 1.84D-05 BMatP= 2.61D-04
 IDIUse=3 WtCom= 9.98D-01 WtEn= 2.05D-03
 Coeff-Com:  0.160D-02-0.827D-02 0.264D-01 0.112D+00 0.259D+00 0.610D+00
 Coeff-En:   0.000D+00 0.000D+00 0.000D+00 0.000D+00 0.000D+00 0.100D+01
 Coeff:      0.160D-02-0.826D-02 0.263D-01 0.112D+00 0.258D+00 0.610D+00
 Gap=     0.307 Goal=   None    Shift=    0.000
 RMSDP=9.55D-05 MaxDP=1.08D-02 DE=-2.27D-04 OVMax= 1.20D-03

 Cycle   7  Pass 1  IDiag  1:
 RMSU=  6.76D-05    CP:  9.38D-01  5.28D-01  9.47D-01  7.84D-01  9.64D-01
                    CP:  1.00D+00
 E= -1027.76265455942     Delta-E=       -0.000012472309 Rises=F Damp=F
 DIIS: error= 1.85D-04 at cycle   7 NSaved=   7.
 NSaved= 7 IEnMin= 7 EnMin= -1027.76265455942     IErMin= 7 ErrMin= 1.85D-04
 ErrMax= 1.85D-04  0.00D+00 EMaxC= 1.00D-01 BMatC= 4.59D-06 BMatP= 1.84D-05
 IDIUse=3 WtCom= 9.98D-01 WtEn= 1.85D-03
 Coeff-Com:  0.752D-03-0.363D-02 0.458D-03 0.194D-02 0.647D-01 0.373D+00
 Coeff-Com:  0.563D+00
 Coeff-En:   0.000D+00 0.000D+00 0.000D+00 0.000D+00 0.000D+00 0.603D-01
 Coeff-En:   0.940D+00
 Coeff:      0.750D-03-0.362D-02 0.457D-03 0.194D-02 0.646D-01 0.372D+00
 Coeff:      0.564D+00
 Gap=     0.307 Goal=   None    Shift=    0.000
 RMSDP=3.50D-05 MaxDP=3.31D-03 DE=-1.25D-05 OVMax= 4.49D-04

 Cycle   8  Pass 1  IDiag  1:
 RMSU=  2.38D-05    CP:  9.38D-01  5.26D-01  9.47D-01  7.87D-01  9.72D-01
                    CP:  1.03D+00  9.88D-01
 E= -1027.76265814588     Delta-E=       -0.000003586452 Rises=F Damp=F
 DIIS: error= 4.01D-05 at cycle   8 NSaved=   8.
 NSaved= 8 IEnMin= 8 EnMin= -1027.76265814588     IErMin= 8 ErrMin= 4.01D-05
 ErrMax= 4.01D-05  0.00D+00 EMaxC= 1.00D-01 BMatC= 3.90D-07 BMatP= 4.59D-06
 IDIUse=1 WtCom= 1.00D+00 WtEn= 0.00D+00
 Coeff-Com:  0.239D-03-0.564D-03-0.344D-02-0.170D-01-0.651D-02 0.794D-01
 Coeff-Com:  0.257D+00 0.690D+00
 Coeff:      0.239D-03-0.564D-03-0.344D-02-0.170D-01-0.651D-02 0.794D-01
 Coeff:      0.257D+00 0.690D+00
 Gap=     0.307 Goal=   None    Shift=    0.000
 RMSDP=1.28D-05 MaxDP=6.46D-04 DE=-3.59D-06 OVMax= 1.78D-04

 Cycle   9  Pass 1  IDiag  1:
 RMSU=  8.19D-06    CP:  9.37D-01  5.26D-01  9.48D-01  7.85D-01  9.83D-01
                    CP:  1.02D+00  1.03D+00  1.11D+00
 E= -1027.76265850472     Delta-E=       -0.000000358844 Rises=F Damp=F
 DIIS: error= 7.87D-06 at cycle   9 NSaved=   9.
 NSaved= 9 IEnMin= 9 EnMin= -1027.76265850472     IErMin= 9 ErrMin= 7.87D-06
 ErrMax= 7.87D-06  0.00D+00 EMaxC= 1.00D-01 BMatC= 3.37D-08 BMatP= 3.90D-07
 IDIUse=1 WtCom= 1.00D+00 WtEn= 0.00D+00
 Coeff-Com:  0.417D-05 0.208D-03-0.895D-03-0.542D-02-0.925D-02-0.282D-01
 Coeff-Com:  0.442D-02 0.243D+00 0.796D+00
 Coeff:      0.417D-05 0.208D-03-0.895D-03-0.542D-02-0.925D-02-0.282D-01
 Coeff:      0.442D-02 0.243D+00 0.796D+00
 Gap=     0.307 Goal=   None    Shift=    0.000
 RMSDP=4.74D-06 MaxDP=2.08D-04 DE=-3.59D-07 OVMax= 5.78D-05

 Cycle  10  Pass 1  IDiag  1:
 RMSU=  2.67D-06    CP:  9.37D-01  5.26D-01  9.48D-01  7.84D-01  9.87D-01
                    CP:  1.03D+00  1.04D+00  1.13D+00  9.92D-01
 E= -1027.76265854096     Delta-E=       -0.000000036242 Rises=F Damp=F
 DIIS: error= 2.56D-06 at cycle  10 NSaved=  10.
 NSaved=10 IEnMin=10 EnMin= -1027.76265854096     IErMin=10 ErrMin= 2.56D-06
 ErrMax= 2.56D-06  0.00D+00 EMaxC= 1.00D-01 BMatC= 3.25D-09 BMatP= 3.37D-08
 IDIUse=1 WtCom= 1.00D+00 WtEn= 0.00D+00
 Coeff-Com: -0.103D-04 0.127D-03-0.204D-03-0.159D-02-0.387D-02-0.185D-01
 Coeff-Com: -0.111D-01 0.783D-01 0.380D+00 0.577D+00
 Coeff:     -0.103D-04 0.127D-03-0.204D-03-0.159D-02-0.387D-02-0.185D-01
 Coeff:     -0.111D-01 0.783D-01 0.380D+00 0.577D+00
 Gap=     0.307 Goal=   None    Shift=    0.000
 RMSDP=1.28D-06 MaxDP=9.42D-05 DE=-3.62D-08 OVMax= 2.25D-05

 Cycle  11  Pass 1  IDiag  1:
 RMSU=  9.18D-07    CP:  9.37D-01  5.26D-01  9.48D-01  7.84D-01  9.87D-01
                    CP:  1.03D+00  1.04D+00  1.14D+00  1.01D+00  8.21D-01
 E= -1027.76265854328     Delta-E=       -0.000000002323 Rises=F Damp=F
 DIIS: error= 1.37D-06 at cycle  11 NSaved=  11.
 NSaved=11 IEnMin=11 EnMin= -1027.76265854328     IErMin=11 ErrMin= 1.37D-06
 ErrMax= 1.37D-06  0.00D+00 EMaxC= 1.00D-01 BMatC= 9.16D-10 BMatP= 3.25D-09
 IDIUse=1 WtCom= 1.00D+00 WtEn= 0.00D+00
 Coeff-Com: -0.682D-05 0.328D-04 0.754D-04 0.190D-03-0.294D-03-0.520D-02
 Coeff-Com: -0.701D-02-0.577D-02 0.571D-01 0.363D+00 0.598D+00
 Coeff:     -0.682D-05 0.328D-04 0.754D-04 0.190D-03-0.294D-03-0.520D-02
 Coeff:     -0.701D-02-0.577D-02 0.571D-01 0.363D+00 0.598D+00
 Gap=     0.307 Goal=   None    Shift=    0.000
 RMSDP=5.77D-07 MaxDP=4.15D-05 DE=-2.32D-09 OVMax= 6.71D-06

 Cycle  12  Pass 1  IDiag  1:
 RMSU=  3.76D-07    CP:  9.37D-01  5.26D-01  9.48D-01  7.84D-01  9.86D-01
                    CP:  1.03D+00  1.05D+00  1.15D+00  9.98D-01  8.44D-01
                    CP:  8.54D-01
 E= -1027.76265854396     Delta-E=       -0.000000000672 Rises=F Damp=F
 DIIS: error= 3.09D-07 at cycle  12 NSaved=  12.
 NSaved=12 IEnMin=12 EnMin= -1027.76265854396     IErMin=12 ErrMin= 3.09D-07
 ErrMax= 3.09D-07  0.00D+00 EMaxC= 1.00D-01 BMatC= 5.48D-11 BMatP= 9.16D-10
 IDIUse=1 WtCom= 1.00D+00 WtEn= 0.00D+00
 Coeff-Com: -0.224D-05 0.397D-05 0.568D-04 0.231D-03 0.220D-03-0.816D-03
 Coeff-Com: -0.241D-02-0.100D-01-0.809D-02 0.117D+00 0.278D+00 0.625D+00
 Coeff:     -0.224D-05 0.397D-05 0.568D-04 0.231D-03 0.220D-03-0.816D-03
 Coeff:     -0.241D-02-0.100D-01-0.809D-02 0.117D+00 0.278D+00 0.625D+00
 Gap=     0.307 Goal=   None    Shift=    0.000
 RMSDP=1.09D-07 MaxDP=7.80D-06 DE=-6.72D-10 OVMax= 2.00D-06

 Cycle  13  Pass 1  IDiag  1:
 RMSU=  7.60D-08    CP:  9.37D-01  5.26D-01  9.48D-01  7.84D-01  9.86D-01
                    CP:  1.03D+00  1.05D+00  1.15D+00  1.00D+00  8.53D-01
                    CP:  8.82D-01  9.43D-01
 E= -1027.76265854399     Delta-E=       -0.000000000030 Rises=F Damp=F
 DIIS: error= 8.13D-08 at cycle  13 NSaved=  13.
 NSaved=13 IEnMin=13 EnMin= -1027.76265854399     IErMin=13 ErrMin= 8.13D-08
 ErrMax= 8.13D-08  0.00D+00 EMaxC= 1.00D-01 BMatC= 4.64D-12 BMatP= 5.48D-11
 IDIUse=1 WtCom= 1.00D+00 WtEn= 0.00D+00
 Coeff-Com:  0.145D-06-0.231D-05 0.159D-04 0.686D-04 0.132D-03 0.302D-03
 Coeff-Com: -0.169D-03-0.339D-02-0.100D-01 0.526D-02 0.398D-01 0.243D+00
 Coeff-Com:  0.725D+00
 Coeff:      0.145D-06-0.231D-05 0.159D-04 0.686D-04 0.132D-03 0.302D-03
 Coeff:     -0.169D-03-0.339D-02-0.100D-01 0.526D-02 0.398D-01 0.243D+00
 Coeff:      0.725D+00
 Gap=     0.307 Goal=   None    Shift=    0.000
 RMSDP=5.95D-08 MaxDP=6.34D-06 DE=-3.00D-11 OVMax= 5.74D-07

 Cycle  14  Pass 1  IDiag  1:
 RMSU=  3.42D-08    CP:  9.37D-01  5.26D-01  9.48D-01  7.84D-01  9.86D-01
                    CP:  1.03D+00  1.05D+00  1.15D+00  1.00D+00  8.61D-01
                    CP:  8.77D-01  9.41D-01  1.02D+00
 E= -1027.76265854400     Delta-E=       -0.000000000010 Rises=F Damp=F
 DIIS: error= 4.63D-08 at cycle  14 NSaved=  14.
 NSaved=14 IEnMin=14 EnMin= -1027.76265854400     IErMin=14 ErrMin= 4.63D-08
 ErrMax= 4.63D-08  0.00D+00 EMaxC= 1.00D-01 BMatC= 6.57D-13 BMatP= 4.64D-12
 IDIUse=1 WtCom= 1.00D+00 WtEn= 0.00D+00
 Coeff-Com:  0.273D-06-0.138D-05 0.353D-05 0.142D-04 0.453D-04 0.183D-03
 Coeff-Com:  0.912D-04-0.860D-03-0.392D-02-0.660D-02-0.348D-02 0.620D-01
 Coeff-Com:  0.345D+00 0.607D+00
 Coeff:      0.273D-06-0.138D-05 0.353D-05 0.142D-04 0.453D-04 0.183D-03
 Coeff:      0.912D-04-0.860D-03-0.392D-02-0.660D-02-0.348D-02 0.620D-01
 Coeff:      0.345D+00 0.607D+00
 Gap=     0.307 Goal=   None    Shift=    0.000
 RMSDP=1.51D-08 MaxDP=8.18D-07 DE=-1.00D-11 OVMax= 1.77D-07

 Cycle  15  Pass 1  IDiag  1:
 RMSU=  1.07D-08    CP:  9.37D-01  5.26D-01  9.48D-01  7.84D-01  9.86D-01
                    CP:  1.03D+00  1.05D+00  1.15D+00  1.00D+00  8.61D-01
                    CP:  8.78D-01  9.54D-01  1.07D+00  8.50D-01
 E= -1027.76265854402     Delta-E=       -0.000000000021 Rises=F Damp=F
 DIIS: error= 1.29D-08 at cycle  15 NSaved=  15.
 NSaved=15 IEnMin=15 EnMin= -1027.76265854402     IErMin=15 ErrMin= 1.29D-08
 ErrMax= 1.29D-08  0.00D+00 EMaxC= 1.00D-01 BMatC= 7.10D-14 BMatP= 6.57D-13
 IDIUse=1 WtCom= 1.00D+00 WtEn= 0.00D+00
 Coeff-Com:  0.124D-06-0.326D-06-0.709D-06-0.413D-05 0.222D-05 0.384D-04
 Coeff-Com:  0.792D-04 0.933D-04-0.335D-03-0.407D-02-0.791D-02-0.631D-02
 Coeff-Com:  0.553D-01 0.275D+00 0.688D+00
 Coeff:      0.124D-06-0.326D-06-0.709D-06-0.413D-05 0.222D-05 0.384D-04
 Coeff:      0.792D-04 0.933D-04-0.335D-03-0.407D-02-0.791D-02-0.631D-02
 Coeff:      0.553D-01 0.275D+00 0.688D+00
 Gap=     0.307 Goal=   None    Shift=    0.000
 RMSDP=5.82D-09 MaxDP=3.96D-07 DE=-2.09D-11 OVMax= 9.69D-08

 SCF Done:  E(RBMK) =  -1027.76265854     A.U. after   15 cycles
            NFock= 15  Conv=0.58D-08     -V/T= 2.0058
 KE= 1.021864217338D+03 PE=-5.899274763072D+03 EE= 2.098836212614D+03
 Leave Link  502 at Thu Apr  6 12:03:06 2023, MaxMem=    33554432 cpu:       725.3
 (Enter /hits/basement/its/doserbd/software/gaussian/g09d1/g09/l601.exe)
 Copying SCF densities to generalized density rwf, IOpCl= 0 IROHF=0.

 **********************************************************************

            Population analysis using the SCF density.

 **********************************************************************

 Orbital symmetries:
       Occupied  (A) (A) (A) (A) (A) (A) (A) (A) (A) (A) (A) (A)
                 (A) (A) (A) (A) (A) (A) (A) (A) (A) (A) (A) (A)
                 (A) (A) (A) (A) (A) (A) (A) (A) (A) (A) (A) (A)
                 (A) (A) (A) (A) (A) (A) (A) (A) (A) (A) (A) (A)
                 (A) (A) (A) (A) (A) (A) (A) (A) (A) (A) (A) (A)
                 (A) (A) (A) (A) (A) (A) (A) (A) (A) (A) (A) (A)
                 (A) (A) (A) (A) (A) (A) (A) (A)
       Virtual   (A) (A) (A) (A) (A) (A) (A) (A) (A) (A) (A) (A)
                 (A) (A) (A) (A) (A) (A) (A) (A) (A) (A) (A) (A)
                 (A) (A) (A) (A) (A) (A) (A) (A) (A) (A) (A) (A)
                 (A) (A) (A) (A) (A) (A) (A) (A) (A) (A) (A) (A)
                 (A) (A) (A) (A) (A) (A) (A) (A) (A) (A) (A) (A)
                 (A) (A) (A) (A) (A) (A) (A) (A) (A) (A) (A) (A)
                 (A) (A) (A) (A) (A) (A) (A) (A) (A) (A) (A) (A)
                 (A) (A) (A) (A) (A) (A) (A) (A) (A) (A) (A) (A)
                 (A) (A) (A) (A) (A) (A) (A) (A) (A) (A) (A) (A)
                 (A) (A) (A) (A) (A) (A) (A) (A) (A) (A) (A) (A)
                 (A) (A) (A) (A) (A) (A) (A) (A) (A) (A) (A) (A)
                 (A) (A) (A) (A) (A) (A) (A) (A) (A) (A) (A) (A)
                 (A) (A) (A) (A) (A) (A) (A) (A) (A) (A) (A) (A)
                 (A) (A) (A) (A) (A) (A) (A) (A) (A) (A) (A) (A)
                 (A) (A) (A) (A) (A) (A) (A) (A) (A) (A) (A) (A)
                 (A) (A) (A) (A) (A) (A) (A) (A) (A) (A) (A) (A)
                 (A) (A) (A) (A) (A) (A) (A) (A) (A) (A) (A) (A)
                 (A) (A) (A) (A) (A) (A) (A) (A) (A) (A) (A) (A)
                 (A) (A) (A) (A) (A) (A) (A) (A) (A) (A) (A) (A)
                 (A) (A) (A) (A) (A) (A) (A) (A) (A)
 The electronic state is 1-A.
 Alpha  occ. eigenvalues --  -19.54113 -19.53235 -19.52704 -19.51395 -14.73529
 Alpha  occ. eigenvalues --  -14.72220 -14.70568 -14.70540 -10.62077 -10.60967
 Alpha  occ. eigenvalues --  -10.60559 -10.59889 -10.54199 -10.54035 -10.53747
 Alpha  occ. eigenvalues --  -10.53667 -10.51893 -10.49081 -10.48971 -10.47879
 Alpha  occ. eigenvalues --  -10.47813  -1.16236  -1.15292  -1.14256  -1.13279
 Alpha  occ. eigenvalues --   -1.05302  -1.02291  -1.01602  -1.01131  -0.89056
 Alpha  occ. eigenvalues --   -0.86519  -0.84111  -0.82858  -0.78902  -0.78384
 Alpha  occ. eigenvalues --   -0.74112  -0.71755  -0.67792  -0.66506  -0.65784
 Alpha  occ. eigenvalues --   -0.64900  -0.64074  -0.60327  -0.58513  -0.57317
 Alpha  occ. eigenvalues --   -0.54869  -0.54543  -0.53810  -0.52505  -0.52303
 Alpha  occ. eigenvalues --   -0.52000  -0.51885  -0.50852  -0.49411  -0.49065
 Alpha  occ. eigenvalues --   -0.48189  -0.47499  -0.47159  -0.45688  -0.45573
 Alpha  occ. eigenvalues --   -0.45283  -0.44590  -0.44514  -0.43779  -0.43058
 Alpha  occ. eigenvalues --   -0.42691  -0.42211  -0.40965  -0.40538  -0.40266
 Alpha  occ. eigenvalues --   -0.39695  -0.39192  -0.33064  -0.32633  -0.31575
 Alpha  occ. eigenvalues --   -0.30909  -0.29884  -0.29677  -0.29512  -0.28721
 Alpha virt. eigenvalues --    0.01986   0.02431   0.03179   0.03305   0.03931
 Alpha virt. eigenvalues --    0.04559   0.04882   0.04930   0.05169   0.05706
 Alpha virt. eigenvalues --    0.05791   0.06233   0.07431   0.07652   0.07901
 Alpha virt. eigenvalues --    0.08323   0.08421   0.08985   0.09279   0.10016
 Alpha virt. eigenvalues --    0.10607   0.11016   0.11323   0.11749   0.12051
 Alpha virt. eigenvalues --    0.12554   0.12967   0.13380   0.13495   0.13638
 Alpha virt. eigenvalues --    0.13987   0.14329   0.14917   0.15198   0.15647
 Alpha virt. eigenvalues --    0.15921   0.16012   0.16390   0.17178   0.17545
 Alpha virt. eigenvalues --    0.18404   0.18555   0.18638   0.18941   0.19252
 Alpha virt. eigenvalues --    0.19636   0.20313   0.20365   0.20579   0.20783
 Alpha virt. eigenvalues --    0.21486   0.21814   0.22012   0.22252   0.22427
 Alpha virt. eigenvalues --    0.22652   0.23036   0.23702   0.24332   0.24446
 Alpha virt. eigenvalues --    0.24751   0.24874   0.24935   0.25506   0.25703
 Alpha virt. eigenvalues --    0.26190   0.26471   0.26878   0.27215   0.27511
 Alpha virt. eigenvalues --    0.27926   0.28254   0.28379   0.28695   0.29338
 Alpha virt. eigenvalues --    0.30027   0.30161   0.30630   0.30833   0.31104
 Alpha virt. eigenvalues --    0.31181   0.32183   0.32403   0.32812   0.33175
 Alpha virt. eigenvalues --    0.33428   0.33669   0.33955   0.34298   0.35201
 Alpha virt. eigenvalues --    0.35428   0.35854   0.36123   0.36801   0.36908
 Alpha virt. eigenvalues --    0.37029   0.37467   0.38168   0.38545   0.38913
 Alpha virt. eigenvalues --    0.39318   0.40146   0.40321   0.40678   0.41550
 Alpha virt. eigenvalues --    0.41646   0.42236   0.42580   0.43260   0.43925
 Alpha virt. eigenvalues --    0.43989   0.44879   0.45309   0.46025   0.46675
 Alpha virt. eigenvalues --    0.46982   0.47425   0.47947   0.48866   0.49310
 Alpha virt. eigenvalues --    0.50807   0.51121   0.52039   0.52953   0.53870
 Alpha virt. eigenvalues --    0.55569   0.56445   0.57082   0.57996   0.58650
 Alpha virt. eigenvalues --    0.59915   0.70460   0.71452   0.72167   0.72401
 Alpha virt. eigenvalues --    0.73226   0.74195   0.74731   0.75185   0.76565
 Alpha virt. eigenvalues --    0.77057   0.77739   0.78912   0.79642   0.80525
 Alpha virt. eigenvalues --    0.81243   0.81589   0.81904   0.82947   0.83767
 Alpha virt. eigenvalues --    0.84993   0.85652   0.86151   0.87261   0.89251
 Alpha virt. eigenvalues --    0.89900   0.90691   0.91519   0.92743   0.93870
 Alpha virt. eigenvalues --    0.95608   0.97332   0.99260   1.00043   1.00342
 Alpha virt. eigenvalues --    1.00628   1.02426   1.03577   1.04946   1.05393
 Alpha virt. eigenvalues --    1.06650   1.08017   1.09687   1.10552   1.10856
 Alpha virt. eigenvalues --    1.10997   1.12861   1.13961   1.14283   1.15792
 Alpha virt. eigenvalues --    1.16272   1.17287   1.18084   1.19221   1.19727
 Alpha virt. eigenvalues --    1.20839   1.21660   1.22812   1.24148   1.24831
 Alpha virt. eigenvalues --    1.25247   1.25724   1.26479   1.28225   1.29637
 Alpha virt. eigenvalues --    1.30085   1.32380   1.34086   1.36100   1.37211
 Alpha virt. eigenvalues --    1.37898   1.38204   1.39812   1.40463   1.41397
 Alpha virt. eigenvalues --    1.43169   1.45347   1.46606   1.47268   1.48607
 Alpha virt. eigenvalues --    1.49751   1.51122   1.51585   1.53379   1.55126
 Alpha virt. eigenvalues --    1.56351   1.57172   1.59314   1.61169   1.62087
 Alpha virt. eigenvalues --    1.62681   1.66660   1.67456   1.69735   1.74117
 Alpha virt. eigenvalues --    1.74646   1.76211   1.81101   1.86863   1.89447
 Alpha virt. eigenvalues --    1.90860   1.96992   2.12448   2.14241   2.17418
 Alpha virt. eigenvalues --    2.20005   2.22220
          Condensed to atoms (all electrons):
               1          2          3          4          5          6
     1  C    6.607081   0.399713   0.421369   0.423833  -0.317825  -0.055810
     2  H    0.399713   0.525101  -0.026142  -0.026185  -0.081575   0.005030
     3  H    0.421369  -0.026142   0.468661  -0.021633  -0.070831  -0.003886
     4  H    0.423833  -0.026185  -0.021633   0.469206  -0.072558  -0.003919
     5  C   -0.317825  -0.081575  -0.070831  -0.072558   6.698409   0.444694
     6  O   -0.055810   0.005030  -0.003886  -0.003919   0.444694   8.501813
     7  N   -0.359716   0.005544   0.004682   0.004197  -0.581141  -0.244906
     8  H    0.013902   0.002892   0.000029   0.000030   0.008194   0.003414
     9  C   -0.599346   0.001942  -0.003849  -0.003456  -1.037592  -0.137339
    10  H   -0.001367  -0.000007   0.000035  -0.000011   0.014270   0.001389
    11  H    0.004294  -0.000008  -0.000012   0.000037   0.032652   0.002165
    12  C    0.244857   0.001838  -0.000992  -0.001947   0.442115   0.089865
    13  O    0.003826  -0.000154   0.000019   0.000020   0.007557  -0.001216
    14  N    0.007254   0.000170  -0.000006  -0.000008  -0.056485  -0.007599
    15  C   -0.006127   0.000240   0.000043   0.000024  -0.102614  -0.016686
    16  H    0.000161   0.000000   0.000000   0.000000   0.000903   0.000059
    17  H    0.000281   0.000000   0.000000   0.000000   0.003640   0.000023
    18  C   -0.000149   0.000018   0.000002   0.000003  -0.029183  -0.002634
    19  H    0.000002   0.000000   0.000000   0.000000   0.000040   0.000000
    20  H    0.000000   0.000000   0.000000   0.000000  -0.000012   0.000000
    21  C   -0.000807  -0.000012   0.000001   0.000000  -0.015291   0.000507
    22  H    0.000000   0.000000   0.000000   0.000000  -0.000021   0.000000
    23  H   -0.000003   0.000000   0.000000   0.000000  -0.000041   0.000000
    24  C    0.003147   0.000175  -0.000001   0.000001   0.010056  -0.000867
    25  H    0.000009   0.000000   0.000000   0.000000   0.000155   0.000001
    26  C    0.004319   0.000039  -0.000003   0.000006   0.003789  -0.000716
    27  O    0.000009   0.000000   0.000000   0.000000   0.000215   0.000000
    28  N   -0.000070   0.000004   0.000000   0.000000  -0.002555  -0.000023
    29  H   -0.000016   0.000000   0.000000   0.000000  -0.000003   0.000002
    30  C   -0.000152  -0.000012   0.000001  -0.000001  -0.001085   0.000141
    31  H    0.000001   0.000000   0.000000   0.000000   0.000005   0.000000
    32  C   -0.000324   0.000003  -0.000001   0.000000  -0.001004  -0.000067
    33  H    0.000000   0.000000   0.000000   0.000000  -0.000002   0.000000
    34  H    0.000000   0.000000   0.000000   0.000000   0.000000   0.000000
    35  H    0.000031   0.000000   0.000000   0.000000   0.000125   0.000000
    36  C    0.000392   0.000004  -0.000001   0.000000   0.002444  -0.000037
    37  O   -0.000014   0.000000   0.000000   0.000000  -0.000118   0.000000
    38  N   -0.000007   0.000000   0.000000   0.000000   0.000016   0.000000
    39  H    0.000000   0.000000   0.000000   0.000000   0.000000   0.000000
    40  C   -0.000010   0.000000   0.000000   0.000000   0.000017   0.000000
    41  H    0.000000   0.000000   0.000000   0.000000   0.000000   0.000000
    42  H    0.000000   0.000000   0.000000   0.000000   0.000000   0.000000
    43  H    0.000000   0.000000   0.000000   0.000000   0.000000   0.000000
               7          8          9         10         11         12
     1  C   -0.359716   0.013902  -0.599346  -0.001367   0.004294   0.244857
     2  H    0.005544   0.002892   0.001942  -0.000007  -0.000008   0.001838
     3  H    0.004682   0.000029  -0.003849   0.000035  -0.000012  -0.000992
     4  H    0.004197   0.000030  -0.003456  -0.000011   0.000037  -0.001947
     5  C   -0.581141   0.008194  -1.037592   0.014270   0.032652   0.442115
     6  O   -0.244906   0.003414  -0.137339   0.001389   0.002165   0.089865
     7  N    8.109639   0.254574   0.597250  -0.042151  -0.052010  -0.137507
     8  H    0.254574   0.290159  -0.147144   0.002038   0.002185   0.081744
     9  C    0.597250  -0.147144  17.381029   0.395090   0.437483  -7.923454
    10  H   -0.042151   0.002038   0.395090   0.478568  -0.038245  -0.090760
    11  H   -0.052010   0.002185   0.437483  -0.038245   0.484257  -0.135054
    12  C   -0.137507   0.081744  -7.923454  -0.090760  -0.135054  14.054018
    13  O   -0.004547   0.022002   0.297134  -0.000766   0.003615   0.027719
    14  N   -0.034665   0.016697  -1.514931   0.023204   0.020957  -0.280970
    15  C    0.048977   0.002767  -0.486263   0.004990  -0.024538  -0.168783
    16  H   -0.000273   0.000000   0.012444   0.002634  -0.001773  -0.057580
    17  H   -0.000086  -0.000001   0.048254  -0.001005   0.003218  -0.048590
    18  C   -0.005556   0.000320  -0.053960  -0.002399   0.008101  -0.134908
    19  H   -0.000021   0.000000  -0.000833   0.000004  -0.000001   0.006338
    20  H   -0.000010   0.000000  -0.000456  -0.000003  -0.000003  -0.009114
    21  C   -0.002188  -0.000532  -0.172656   0.001645  -0.010082   0.242550
    22  H   -0.000013   0.000000  -0.000965   0.000000   0.000000  -0.014023
    23  H   -0.000005   0.000000  -0.007416   0.000000   0.000003   0.030615
    24  C   -0.024299   0.006561   0.011790   0.008965   0.005806  -0.832579
    25  H    0.000378   0.000000  -0.007191  -0.000016   0.000023   0.036118
    26  C   -0.012967   0.002158  -0.172284  -0.006189   0.009630  -0.873185
    27  O    0.000240   0.000002  -0.019481   0.000078  -0.000020   0.030976
    28  N    0.000345   0.000259  -0.141218  -0.000719   0.000299   0.283993
    29  H    0.000009  -0.000056   0.023846  -0.000011  -0.000006  -0.016735
    30  C    0.000275  -0.000658   0.126545   0.000113  -0.000104  -0.086629
    31  H   -0.000005   0.000000   0.000633   0.000000   0.000000  -0.006299
    32  C    0.001237   0.000171  -0.052876  -0.000326   0.000170   0.042830
    33  H   -0.000002   0.000000   0.000160   0.000000   0.000000   0.000550
    34  H    0.000007   0.000000  -0.000467   0.000000   0.000000   0.004054
    35  H   -0.000053   0.000000   0.002355  -0.000002   0.000000  -0.012125
    36  C   -0.000846   0.000037  -0.007549  -0.000305   0.000034   0.015948
    37  O   -0.000115   0.000004  -0.001450  -0.000003   0.000001   0.005564
    38  N    0.000030   0.000000  -0.000207   0.000000   0.000000   0.003724
    39  H    0.000000   0.000000  -0.000008   0.000000   0.000000  -0.000136
    40  C    0.000017  -0.000002  -0.000280  -0.000001   0.000000   0.001156
    41  H    0.000000   0.000000   0.000000   0.000000   0.000000  -0.000002
    42  H    0.000000   0.000000  -0.000002   0.000000   0.000000  -0.000048
    43  H    0.000000   0.000000  -0.000003   0.000000   0.000000   0.000036
              13         14         15         16         17         18
     1  C    0.003826   0.007254  -0.006127   0.000161   0.000281  -0.000149
     2  H   -0.000154   0.000170   0.000240   0.000000   0.000000   0.000018
     3  H    0.000019  -0.000006   0.000043   0.000000   0.000000   0.000002
     4  H    0.000020  -0.000008   0.000024   0.000000   0.000000   0.000003
     5  C    0.007557  -0.056485  -0.102614   0.000903   0.003640  -0.029183
     6  O   -0.001216  -0.007599  -0.016686   0.000059   0.000023  -0.002634
     7  N   -0.004547  -0.034665   0.048977  -0.000273  -0.000086  -0.005556
     8  H    0.022002   0.016697   0.002767   0.000000  -0.000001   0.000320
     9  C    0.297134  -1.514931  -0.486263   0.012444   0.048254  -0.053960
    10  H   -0.000766   0.023204   0.004990   0.002634  -0.001005  -0.002399
[...]
      6  O        5  -0.000002(     5)      1  -0.000003(    46)      2   0.000043(    86)     0
      7  N        5  -0.000116(     6)      1   0.000113(    47)      6   0.000042(    87)     0
      8  H        7   0.000001(     7)      5  -0.000001(    48)      1  -0.000065(    88)     0
      9  C        7  -0.000021(     8)      5  -0.000004(    49)      8  -0.000064(    89)     0
     10  H        9   0.000000(     9)      7  -0.000002(    50)      5  -0.000084(    90)     0
     11  H        9  -0.000001(    10)      7  -0.000003(    51)     10   0.000000(    91)     0
     12  C        9  -0.000121(    11)      7  -0.000332(    52)     10  -0.000084(    92)     0
     13  O       12   0.000000(    12)      9   0.000000(    53)      7   0.000101(    93)     0
     14  N       12  -0.000032(    13)      9   0.000405(    54)     13   0.000102(    94)     0
     15  C       14   0.000003(    14)     12  -0.000052(    55)      9  -0.000206(    95)     0
     16  H       15   0.000000(    15)     14  -0.000001(    56)     12   0.000019(    96)     0
     17  H       15   0.000001(    16)     14  -0.000002(    57)     16   0.000002(    97)     0
     18  C       15  -0.000007(    17)     14   0.000017(    58)     16   0.000020(    98)     0
     19  H       18  -0.000001(    18)     15  -0.000002(    59)     14   0.000006(    99)     0
     20  H       18   0.000000(    19)     15  -0.000004(    60)     19   0.000000(   100)     0
     21  C       18  -0.000002(    20)     15  -0.000006(    61)     19   0.000009(   101)     0
     22  H       21  -0.000001(    21)     18  -0.000001(    62)     15  -0.000003(   102)     0
     23  H       21   0.000001(    22)     18  -0.000002(    63)     22  -0.000001(   103)     0
     24  C       14  -0.000102(    23)     12  -0.000721(    64)     15  -0.000207(   104)     0
     25  H       24   0.000000(    24)     14  -0.000001(    65)     12   0.000290(   105)     0
     26  C       24  -0.000097(    25)     14  -0.000674(    66)     25   0.000289(   106)     0
     27  O       26   0.000000(    26)     24  -0.000003(    67)     14  -0.000598(   107)     0
     28  N       26  -0.000049(    27)     24  -0.000714(    68)     27  -0.000599(   108)     0
     29  H       28  -0.000001(    28)     26  -0.000002(    69)     24   0.000009(   109)     0
     30  C       28  -0.000095(    29)     26   0.000500(    70)     29   0.000009(   110)     0
     31  H       30   0.000001(    30)     28  -0.000002(    71)     26  -0.000407(   111)     0
     32  C       30   0.000000(    31)     28  -0.000004(    72)     31  -0.000010(   112)     0
     33  H       32   0.000000(    32)     30   0.000000(    73)     28   0.000002(   113)     0
     34  H       32   0.000001(    33)     30   0.000000(    74)     33   0.000000(   114)     0
     35  H       32  -0.000001(    34)     30   0.000000(    75)     33  -0.000001(   115)     0
     36  C       30  -0.000049(    35)     28  -0.000448(    76)     31  -0.000399(   116)     0
     37  O       36  -0.000001(    36)     30   0.000001(    77)     28   0.000100(   117)     0
     38  N       36  -0.000117(    37)     30   0.000290(    78)     37   0.000100(   118)     0
     39  H       38   0.000002(    38)     36  -0.000002(    79)     30  -0.000080(   119)     0
     40  C       38  -0.000053(    39)     36  -0.000286(    80)     39  -0.000079(   120)     0
     41  H       40   0.000001(    40)     38  -0.000005(    81)     36   0.000000(   121)     0
     42  H       40  -0.000002(    41)     38  -0.000001(    82)     41  -0.000002(   122)     0
     43  H       40  -0.000001(    42)     38  -0.000003(    83)     41   0.000004(   123)     0
 -----------------------------------------------------------------------------------------------
 Internal  Forces:  Max     0.000720583 RMS     0.000183047
 Leave Link  716 at Thu Apr  6 12:03:18 2023, MaxMem=    33554432 cpu:         0.6
 (Enter /hits/basement/its/doserbd/software/gaussian/g09d1/g09/l103.exe)

 GradGradGradGradGradGradGradGradGradGradGradGradGradGradGradGradGradGrad
 Berny optimization.
 Search for a local minimum.
 Step number   1 out of a maximum of    2
 All quantities printed in internal units (Hartrees-Bohrs-Radians)
 Second derivative matrix not updated -- first step.
 ITU=  0
     Eigenvalues ---    0.01218   0.01607   0.01853   0.01975   0.02205
     Eigenvalues ---    0.02432   0.03020   0.03111   0.03245   0.03341
     Eigenvalues ---    0.04497   0.04588   0.04964   0.05146   0.07079
     Eigenvalues ---    0.07206   0.07322   0.07394   0.07695   0.07907
     Eigenvalues ---    0.08263   0.09756   0.10495   0.11289   0.11886
     Eigenvalues ---    0.12360   0.13574   0.13604   0.14469   0.14817
     Eigenvalues ---    0.15557   0.15951   0.16225   0.16576   0.17152
     Eigenvalues ---    0.17643   0.17763   0.18063   0.18324   0.19756
     Eigenvalues ---    0.19880   0.19884   0.19887   0.23492   0.23822
     Eigenvalues ---    0.23889   0.24868   0.25000   0.25002   0.25003
     Eigenvalues ---    0.25019   0.26255   0.26709   0.26884   0.27450
     Eigenvalues ---    0.27832   0.28518   0.29111   0.29431   0.29759
     Eigenvalues ---    0.30417   0.31010   0.31619   0.32886   0.32955
     Eigenvalues ---    0.33496   0.33536   0.33612   0.33802   0.33847
     Eigenvalues ---    0.33893   0.33970   0.33992   0.34004   0.34006
     Eigenvalues ---    0.34030   0.34045   0.34064   0.34077   0.34081
     Eigenvalues ---    0.34151   0.34174   0.34382   0.34424   0.34558
     Eigenvalues ---    0.34624   0.34930   0.35229   0.35968   0.36562
     Eigenvalues ---    0.36831   0.37397   0.37678   0.38461   0.38539
     Eigenvalues ---    0.38606   0.39203   0.40002   0.41456   0.44381
     Eigenvalues ---    0.45530   0.46214   0.46903   0.53047   0.53106
     Eigenvalues ---    0.53131   0.53201   0.53432   0.54617   0.54822
     Eigenvalues ---    0.58957   0.72998   0.74950   0.74998   0.75000
     Eigenvalues ---    0.75016   0.81566   0.83130   0.83884   0.85334
     Eigenvalues ---    1.80045   4.16808  13.31406
 Angle between quadratic step and forces=  60.73 degrees.
 Linear search not attempted -- first point.
 Variable       Old X    -DE/DX   Delta X   Delta X   Delta X     New X
                                 (Linear)    (Quad)   (Total)
    R2        2.07037   0.00000   0.00000   0.00001   0.00001   2.07037
    R3        2.07254   0.00000   0.00000   0.00000   0.00000   2.07255
    R4        2.07280   0.00000   0.00000   0.00000   0.00000   2.07280
    R5        2.87139  -0.00002   0.00000  -0.00006  -0.00006   2.87133
    R6        2.35886   0.00000   0.00000   0.00000   0.00000   2.35886
    R7        2.56767  -0.00012   0.00000  -0.00022  -0.00022   2.56745
    R8        1.91365   0.00000   0.00000   0.00000   0.00000   1.91365
    R9        2.73493  -0.00002   0.00000  -0.00005  -0.00005   2.73488
   R10        2.08189   0.00000   0.00000   0.00000   0.00000   2.08189
   R11        2.08121   0.00000   0.00000   0.00000   0.00000   2.08120
   R12        2.88447  -0.00012   0.00000  -0.00041  -0.00041   2.88406
   R13        2.37082   0.00000   0.00000   0.00000   0.00000   2.37082
   R14        2.55291  -0.00003   0.00000  -0.00006  -0.00006   2.55285
   R15        2.79818   0.00000   0.00000  -0.00013  -0.00013   2.79805
   R16        2.07323   0.00000   0.00000   0.00000   0.00000   2.07323
   R17        2.07990   0.00000   0.00000   0.00000   0.00000   2.07990
   R18        2.92398  -0.00001   0.00000   0.00020   0.00020   2.92418
   R19        2.07200   0.00000   0.00000   0.00000   0.00000   2.07200
   R20        2.07076   0.00000   0.00000   0.00000   0.00000   2.07076
   R21        2.93022   0.00000   0.00000   0.00023   0.00023   2.93045
   R22        2.06620   0.00000   0.00000   0.00000   0.00000   2.06620
   R23        2.07589   0.00000   0.00000   0.00000   0.00000   2.07590
   R24        2.80049  -0.00010   0.00000  -0.00055  -0.00055   2.79994
   R25        2.07344   0.00000   0.00000   0.00000   0.00000   2.07344
   R26        2.92508  -0.00010   0.00000  -0.00035  -0.00035   2.92473
   R27        2.36270   0.00000   0.00000   0.00000   0.00000   2.36270
   R28        2.55474  -0.00005   0.00000  -0.00009  -0.00009   2.55465
   R29        1.92701   0.00000   0.00000   0.00000   0.00000   1.92701
   R30        2.75251  -0.00010   0.00000  -0.00026  -0.00026   2.75226
   R31        2.07666   0.00000   0.00000   0.00000   0.00000   2.07666
   R32        2.93356   0.00000   0.00000   0.00000   0.00000   2.93356
   R33        2.07511   0.00000   0.00000   0.00000   0.00000   2.07511
   R34        2.07194   0.00000   0.00000   0.00000   0.00000   2.07194
   R35        2.07380   0.00000   0.00000   0.00000   0.00000   2.07380
   R36        2.89773  -0.00005   0.00000  -0.00017  -0.00017   2.89756
   R37        2.35161   0.00000   0.00000   0.00000   0.00000   2.35161
   R38        2.56552  -0.00012   0.00000  -0.00022  -0.00022   2.56530
   R39        1.90590   0.00000   0.00000   0.00000   0.00000   1.90591
   R40        2.76101  -0.00005   0.00000  -0.00014  -0.00014   2.76087
   R41        2.06691   0.00000   0.00000   0.00000   0.00000   2.06691
   R42        2.07221   0.00000   0.00000  -0.00001  -0.00001   2.07221
   R43        2.07320   0.00000   0.00000   0.00000   0.00000   2.07320
    A3        1.90722  -0.00001   0.00000  -0.00032  -0.00032   1.90691
    A4        1.90703   0.00000   0.00000  -0.00110  -0.00110   1.90594
    A5        1.96959   0.00047   0.00000   0.00272   0.00272   1.97232
    A6        2.12829   0.00000   0.00000  -0.00018  -0.00018   2.12811
    A7        2.03638   0.00011   0.00000   0.00034   0.00034   2.03671
    A8        2.14759   0.00000   0.00000   0.00002   0.00002   2.14761
    A9        2.10983   0.00000   0.00000  -0.00005  -0.00005   2.10978
   A10        1.93059   0.00000   0.00000  -0.00010  -0.00010   1.93050
   A11        1.92635   0.00000   0.00000   0.00055   0.00055   1.92690
   A12        1.89653  -0.00033   0.00000  -0.00110  -0.00110   1.89543
   A13        2.10957   0.00000   0.00000  -0.00052  -0.00052   2.10904
   A14        2.04014   0.00040   0.00000   0.00105   0.00105   2.04119
   A15        2.19102  -0.00005   0.00000   0.00132   0.00132   2.19234
   A16        1.93564   0.00000   0.00000  -0.00006  -0.00006   1.93558
   A17        1.91737   0.00000   0.00000   0.00012   0.00012   1.91749
   A18        1.80495   0.00002   0.00000  -0.00020  -0.00020   1.80474
   A19        1.92809   0.00000   0.00000  -0.00019  -0.00019   1.92790
   A20        1.94957   0.00000   0.00000  -0.00003  -0.00003   1.94954
   A21        1.80971  -0.00001   0.00000   0.00052   0.00052   1.81023
   A22        1.95539   0.00000   0.00000   0.00011   0.00011   1.95551
   A23        1.93420   0.00000   0.00000  -0.00021  -0.00021   1.93398
   A24        2.11344  -0.00072   0.00000  -0.00140  -0.00140   2.11204
   A25        1.89386   0.00000   0.00000  -0.00082  -0.00082   1.89304
   A26        1.93488  -0.00067   0.00000  -0.00211  -0.00211   1.93277
   A27        2.11952   0.00000   0.00000   0.00095   0.00095   2.12047
   A28        2.02192  -0.00071   0.00000  -0.00189  -0.00189   2.02003
   A29        2.11459   0.00000   0.00000  -0.00083  -0.00083   2.11375
   A30        2.10935   0.00050   0.00000   0.00150   0.00150   2.11085
   A31        1.87966   0.00000   0.00000   0.00088   0.00088   1.88053
   A32        1.94656   0.00000   0.00000  -0.00025  -0.00025   1.94631
   A33        1.93798   0.00000   0.00000   0.00001   0.00001   1.93799
   A34        1.89946   0.00000   0.00000  -0.00001  -0.00001   1.89945
   A35        1.91538   0.00000   0.00000   0.00001   0.00001   1.91539
   A36        1.88481  -0.00045   0.00000  -0.00159  -0.00159   1.88322
   A37        2.12384   0.00000   0.00000  -0.00041  -0.00041   2.12343
   A38        2.02186   0.00029   0.00000   0.00074   0.00074   2.02261
   A39        2.08967   0.00000   0.00000   0.00043   0.00043   2.09010
   A40        2.11555  -0.00029   0.00000  -0.00086  -0.00086   2.11469
   A41        1.90053   0.00000   0.00000  -0.00002  -0.00002   1.90051
   A42        1.92484   0.00000   0.00000   0.00000   0.00000   1.92484
   A43        1.93067   0.00000   0.00000   0.00001   0.00001   1.93068
    D4       -2.05257   0.00000   0.00000   0.00211   0.00211  -2.05046
    D5        2.11567   0.00024   0.00000   0.00246   0.00246   2.11813
    D6       -3.13469   0.00004   0.00000   0.00010   0.00010  -3.13459
    D7       -3.13977   0.00004   0.00000   0.00085   0.00085  -3.13893
    D8       -0.00166  -0.00007   0.00000  -0.00132  -0.00132  -0.00298
    D9        3.13745  -0.00006   0.00000   0.00020   0.00020   3.13765
   D10        1.05308  -0.00008   0.00000  -0.00101  -0.00101   1.05207
   D11       -2.04896   0.00000   0.00000  -0.00051  -0.00051  -2.04947
   D12        2.11527  -0.00008   0.00000  -0.00083  -0.00083   2.11444
   D13       -0.02297   0.00010   0.00000   0.00302   0.00302  -0.01995
   D14        3.14011   0.00010   0.00000   0.00235   0.00235   3.14246
   D15       -0.05947  -0.00021   0.00000  -0.00215  -0.00215  -0.06162
   D16        1.04972   0.00002   0.00000  -0.00385  -0.00385   1.04587
   D17       -2.09638   0.00000   0.00000  -0.00008  -0.00008  -2.09646
   D18        2.11018   0.00002   0.00000  -0.00038  -0.00038   2.10981
   D19       -1.56074   0.00001   0.00000  -0.00005  -0.00005  -1.56079
   D20       -2.11895   0.00000   0.00000   0.00027   0.00027  -2.11868
   D21        2.03864   0.00001   0.00000   0.00005   0.00005   2.03869
   D22       -2.75115   0.00000   0.00000   0.00172   0.00172  -2.74943
   D23       -2.14215   0.00000   0.00000   0.00012   0.00012  -2.14202
   D24       -2.98622  -0.00021   0.00000  -0.00247  -0.00247  -2.98869
   D25        0.62219   0.00029   0.00000   0.00471   0.00471   0.62690
   D26       -2.08987   0.00029   0.00000   0.00227   0.00227  -2.08759
   D27       -1.82625  -0.00060   0.00000  -0.04158  -0.04158  -1.86784
   D28       -3.13213  -0.00060   0.00000  -0.00374  -0.00374  -3.13587
   D29       -0.06088   0.00001   0.00000   0.00091   0.00091  -0.05998
   D30       -3.07976   0.00001   0.00000   0.00214   0.00214  -3.07762
   D31       -0.66830  -0.00041   0.00000  -0.00808  -0.00808  -0.67638
   D32        2.08360  -0.00001   0.00000   0.00063   0.00063   2.08422
   D33       -3.11273   0.00000   0.00000  -0.00105  -0.00105  -3.11377
   D34        2.08884   0.00000   0.00000  -0.00001  -0.00001   2.08883
   D35       -2.10236   0.00000   0.00000  -0.00002  -0.00002  -2.10238
   D36       -2.08030  -0.00040   0.00000  -0.00114  -0.00114  -2.08143
   D37       -0.45450   0.00010   0.00000   0.00472   0.00472  -0.44978
   D38       -3.10383   0.00010   0.00000   0.00237   0.00237  -3.10146
   D39       -0.08736  -0.00008   0.00000  -0.00175  -0.00175  -0.08911
   D40       -3.11522  -0.00008   0.00000  -0.00067  -0.00067  -3.11588
   D41       -3.09470   0.00000   0.00000   0.00033   0.00033  -3.09437
   D42        2.09732   0.00000   0.00000  -0.00002  -0.00002   2.09730
   D43       -2.10115   0.00000   0.00000   0.00001   0.00001  -2.10114
         Item               Value     Threshold  Converged?
 Maximum Force            0.000721     0.000450     NO 
 RMS     Force            0.000183     0.000300     YES
 Maximum Displacement     0.041583     0.001800     NO 
 RMS     Displacement     0.004000     0.001200     NO 
 Predicted change in Energy=-2.201874D-05
 GradGradGradGradGradGradGradGradGradGradGradGradGradGradGradGradGradGrad

 Leave Link  103 at Thu Apr  6 12:03:18 2023, MaxMem=    33554432 cpu:         0.4
 (Enter /hits/basement/its/doserbd/software/gaussian/g09d1/g09/l9999.exe)
 1\1\GINC-HASWELL-171\Force\RBMK\6-31+G\C13H22N4O4\SUCERQDL\06-Apr-2023
 \1\\#P bmk/6-31+g force\\Gaussian input prepared by ASE\\0,1\C\H,1,R2\
 H,1,R3,2,A3\H,1,R4,2,A4,3,D4,0\C,1,R5,2,A5,3,D5,0\O,5,R6,1,A6,2,D6,0\N
 ,5,R7,1,A7,6,D7,0\H,7,R8,5,A8,1,D8,0\C,7,R9,5,A9,8,D9,0\H,9,R10,7,A10,
 5,D10,0\H,9,R11,7,A11,10,D11,0\C,9,R12,7,A12,10,D12,0\O,12,R13,9,A13,7
 ,D13,0\N,12,R14,9,A14,13,D14,0\C,14,R15,12,A15,9,D15,0\H,15,R16,14,A16
 ,12,D16,0\H,15,R17,14,A17,16,D17,0\C,15,R18,14,A18,16,D18,0\H,18,R19,1
 5,A19,14,D19,0\H,18,R20,15,A20,19,D20,0\C,18,R21,15,A21,19,D21,0\H,21,
 R22,18,A22,15,D22,0\H,21,R23,18,A23,22,D23,0\C,14,R24,12,A24,15,D24,0\
 H,24,R25,14,A25,12,D25,0\C,24,R26,14,A26,25,D26,0\O,26,R27,24,A27,14,D
 27,0\N,26,R28,24,A28,27,D28,0\H,28,R29,26,A29,24,D29,0\C,28,R30,26,A30
 ,29,D30,0\H,30,R31,28,A31,26,D31,0\C,30,R32,28,A32,31,D32,0\H,32,R33,3
 0,A33,28,D33,0\H,32,R34,30,A34,33,D34,0\H,32,R35,30,A35,33,D35,0\C,30,
 R36,28,A36,31,D36,0\O,36,R37,30,A37,28,D37,0\N,36,R38,30,A38,37,D38,0\
 H,38,R39,36,A39,30,D39,0\C,38,R40,36,A40,39,D40,0\H,40,R41,38,A41,36,D
 41,0\H,40,R42,38,A42,41,D42,0\H,40,R43,38,A43,41,D43,0\\R2=1.09559141\
 R3=1.09674328\R4=1.09687802\R5=1.51947565\R6=1.24825713\R7=1.35875029\
 R8=1.01266032\R9=1.44726264\R10=1.10168893\R11=1.10132676\R12=1.526397
 13\R13=1.25458403\R14=1.35094079\R15=1.48073423\R16=1.09710421\R17=1.1
 0063631\R18=1.54730265\R19=1.09645422\R20=1.09579846\R21=1.55060615\R2
 2=1.09338562\R23=1.09851603\R24=1.48195448\R25=1.09721481\R26=1.547885
 35\R27=1.25028875\R28=1.3519092\R29=1.01972923\R30=1.45656737\R31=1.09
 891976\R32=1.55237236\R33=1.09809949\R34=1.09642377\R35=1.0974075\R36=
 1.53341091\R37=1.24441783\R38=1.35761609\R39=1.00856032\R40=1.46106377
 \R41=1.09376068\R42=1.09656892\R43=1.09709215\A3=109.27592883\A4=109.2
 6488032\A5=112.84933849\A6=121.94180036\A7=116.67573347\A8=123.0478365
 3\A9=120.88441349\A10=110.61482256\A11=110.37200196\A12=108.66319925\A
 13=120.86920002\A14=116.89148018\A15=125.53624353\A16=110.90399242\A17
 =109.85695945\A18=103.41574281\A19=110.47133413\A20=111.70238559\A21=1
 03.6887133\A22=112.03576623\A23=110.82131804\A24=121.09141576\A25=108.
 51018657\A26=110.86056231\A27=121.43928057\A28=115.84734102\A29=121.15
 693338\A30=120.85680707\A31=107.69633581\A32=111.52958954\A33=111.0383
 5316\A34=108.83122941\A35=109.7433313\A36=107.99146208\A37=121.6872224
 2\A38=115.84408774\A39=119.72953006\A40=121.21212715\A41=108.89241069\
 A42=110.2850745\A43=110.61928225\D4=-117.60371915\D5=121.21875307\D6=-
 179.60441938\D7=-179.89580697\D8=-0.09514722\D9=179.76275952\D10=60.33
 724707\D11=-117.39677622\D12=121.19595593\D13=-1.31581786\D14=179.9151
 0557\D15=-3.40733969\D16=60.14436762\D17=-120.11385249\D18=120.9046612
 4\D19=-89.42386905\D20=-121.40692146\D21=116.80541653\D22=-157.6294228
 7\D23=-122.73606272\D24=-171.09779911\D25=35.6487889\D26=-119.74059613
 \D27=-104.63662592\D28=-179.4576337\D29=-3.48839014\D30=-176.45750879\
 D31=-38.29076201\D32=119.38145192\D33=-178.34607776\D34=119.68157468\D
 35=-120.45619002\D36=-119.19219578\D37=-26.04094686\D38=-177.83631007\
 D39=-5.00509012\D40=-178.48873787\D41=-177.31313155\D42=120.16756225\D
 43=-120.38678856\\Version=ES64L-G09RevD.01\State=1-A\HF=-1027.7626585\
 RMSD=5.824e-09\RMSF=1.596e-05\Dipole=-0.07708,-1.3083419,1.1888418\Qua
 drupole=7.8298349,-4.4429599,-3.386875,-6.3237291,12.9601768,-0.626548
 8\PG=C01 [X(C13H22N4O4)]\\@


 FROM WHENCE IT HAPPENS, THAT THEY WHICH TRUST TO BOOKS, DO AS THEY THAT CAST UP MANY LITTLE SUMMS INTO GREATER,
 WITHOUT CONSIDERING WETHER THOSE LITTLE SUMMES WERE RIGHTLY CAST UP OR NOT...
 AND AT LAST FINDING THE ERROUR VISIBLE, AND NOT MISTRUSTING THEIR FIRST GROUNDS,
 KNOW NOT WHICH WAY TO CLEERE THEMSELVES...
 BUT SPEND TIME IN FLUTTERING OVER THEIR BOOKES....
 AS BIRDS THAT ENTERING BY THE CHIMNEY, AND FINDING THEMSELVES INCLOSED IN A CHAMBER,
 FLUTTER AT THE FALSE LIGHT OF A GLASSE WINDOW,
 FOR WANT OF WIT TO CONSIDER WHICH WAY THEY CAME IN....
           LEVIATHAN
 Job cpu time:       0 days  0 hours 13 minutes 58.0 seconds.
 File lengths (MBytes):  RWF=    112 Int=      0 D2E=      0 Chk=      7 Scr=      1
 Normal termination of Gaussian 09 at Thu Apr  6 12:03:18 2023.
