 Entering Gaussian System, Link 0=g09
 Input=forces.com
 Output=forces.log
 Initial command:
 /hits/basement/its/doserbd/software/gaussian/g09d1/g09/l1.exe "/hits/basement/mbm/sucerquia/gaussian_scratch/Gau-15801.inp" -scrdir="/hits/basement/mbm/sucerquia/gaussian_scratch/"
 Entering Link 1 = /hits/basement/its/doserbd/software/gaussian/g09d1/g09/l1.exe PID=     15802.
  
 Copyright (c) 1988,1990,1992,1993,1995,1998,2003,2009,2013,
            Gaussian, Inc.  All Rights Reserved.
  
 This is part of the Gaussian(R) 09 program.  It is based on
 the Gaussian(R) 03 system (copyright 2003, Gaussian, Inc.),
 the Gaussian(R) 98 system (copyright 1998, Gaussian, Inc.),
 the Gaussian(R) 94 system (copyright 1995, Gaussian, Inc.),
 the Gaussian 92(TM) system (copyright 1992, Gaussian, Inc.),
 the Gaussian 90(TM) system (copyright 1990, Gaussian, Inc.),
 the Gaussian 88(TM) system (copyright 1988, Gaussian, Inc.),
 the Gaussian 86(TM) system (copyright 1986, Carnegie Mellon
 University), and the Gaussian 82(TM) system (copyright 1983,
 Carnegie Mellon University). Gaussian is a federally registered
 trademark of Gaussian, Inc.
  
 This software contains proprietary and confidential information,
 including trade secrets, belonging to Gaussian, Inc.
  
 This software is provided under written license and may be
 used, copied, transmitted, or stored only in accord with that
 written license.
  
 The following legend is applicable only to US Government
 contracts under FAR:
  
                    RESTRICTED RIGHTS LEGEND
  
 Use, reproduction and disclosure by the US Government is
 subject to restrictions as set forth in subparagraphs (a)
 and (c) of the Commercial Computer Software - Restricted
 Rights clause in FAR 52.227-19.
  
 Gaussian, Inc.
 340 Quinnipiac St., Bldg. 40, Wallingford CT 06492
  
  
 ---------------------------------------------------------------
 Warning -- This program may not be used in any manner that
 competes with the business of Gaussian, Inc. or will provide
 assistance to any competitor of Gaussian, Inc.  The licensee
 of this program is prohibited from giving any competitor of
 Gaussian, Inc. access to this program.  By using this program,
 the user acknowledges that Gaussian, Inc. is engaged in the
 business of creating and licensing software in the field of
 computational chemistry and represents and warrants to the
 licensee that it is not a competitor of Gaussian, Inc. and that
 it will not use this program in any manner prohibited above.
 ---------------------------------------------------------------
  

 Cite this work as:
 Gaussian 09, Revision D.01,
 M. J. Frisch, G. W. Trucks, H. B. Schlegel, G. E. Scuseria, 
 M. A. Robb, J. R. Cheeseman, G. Scalmani, V. Barone, B. Mennucci, 
 G. A. Petersson, H. Nakatsuji, M. Caricato, X. Li, H. P. Hratchian, 
 A. F. Izmaylov, J. Bloino, G. Zheng, J. L. Sonnenberg, M. Hada, 
 M. Ehara, K. Toyota, R. Fukuda, J. Hasegawa, M. Ishida, T. Nakajima, 
 Y. Honda, O. Kitao, H. Nakai, T. Vreven, J. A. Montgomery, Jr., 
 J. E. Peralta, F. Ogliaro, M. Bearpark, J. J. Heyd, E. Brothers, 
 K. N. Kudin, V. N. Staroverov, T. Keith, R. Kobayashi, J. Normand, 
 K. Raghavachari, A. Rendell, J. C. Burant, S. S. Iyengar, J. Tomasi, 
 M. Cossi, N. Rega, J. M. Millam, M. Klene, J. E. Knox, J. B. Cross, 
 V. Bakken, C. Adamo, J. Jaramillo, R. Gomperts, R. E. Stratmann, 
 O. Yazyev, A. J. Austin, R. Cammi, C. Pomelli, J. W. Ochterski, 
 R. L. Martin, K. Morokuma, V. G. Zakrzewski, G. A. Voth, 
 P. Salvador, J. J. Dannenberg, S. Dapprich, A. D. Daniels, 
 O. Farkas, J. B. Foresman, J. V. Ortiz, J. Cioslowski, 
 and D. J. Fox, Gaussian, Inc., Wallingford CT, 2013.
 
 ******************************************
 Gaussian 09:  ES64L-G09RevD.01 24-Apr-2013
                 6-Apr-2023 
 ******************************************
 %NProcShared=8
 Will use up to    8 processors via shared memory.
 -------------------
 #P bmk/6-31+g force
 -------------------
 1/10=7,30=1,38=1/1,3;
 2/12=2,17=6,18=5,40=1/2;
 3/5=1,6=6,7=10,11=2,16=1,25=1,30=1,71=1,74=-34/1,2,3;
 4//1;
 5/5=2,38=5/2;
 6/7=2,8=2,9=2,10=2,28=1/1;
 7/29=1/1,2,3,16;
 1/10=7,30=1/3;
 99//99;
 Leave Link    1 at Thu Apr  6 11:59:46 2023, MaxMem=           0 cpu:         0.4
 (Enter /hits/basement/its/doserbd/software/gaussian/g09d1/g09/l101.exe)
 ------------------------------
 Gaussian input prepared by ASE
 ------------------------------
 Symbolic Z-matrix:
 Charge =  0 Multiplicity = 1
 C
 H                    1    R2
 H                    1    R3       2    A3
 H                    1    R4       2    A4       3    D4       0
 C                    1    R5       2    A5       3    D5       0
 O                    5    R6       1    A6       2    D6       0
 N                    5    R7       1    A7       6    D7       0
 H                    7    R8       5    A8       1    D8       0
 C                    7    R9       5    A9       8    D9       0
 H                    9    R10      7    A10      5    D10      0
 H                    9    R11      7    A11      10   D11      0
 C                    9    R12      7    A12      10   D12      0
 O                    12   R13      9    A13      7    D13      0
 N                    12   R14      9    A14      13   D14      0
 C                    14   R15      12   A15      9    D15      0
 H                    15   R16      14   A16      12   D16      0
 H                    15   R17      14   A17      16   D17      0
 C                    15   R18      14   A18      16   D18      0
 H                    18   R19      15   A19      14   D19      0
 H                    18   R20      15   A20      19   D20      0
 C                    18   R21      15   A21      19   D21      0
 H                    21   R22      18   A22      15   D22      0
 H                    21   R23      18   A23      22   D23      0
 C                    14   R24      12   A24      15   D24      0
 H                    24   R25      14   A25      12   D25      0
 C                    24   R26      14   A26      25   D26      0
 O                    26   R27      24   A27      14   D27      0
 N                    26   R28      24   A28      27   D28      0
 H                    28   R29      26   A29      24   D29      0
 C                    28   R30      26   A30      29   D30      0
 H                    30   R31      28   A31      26   D31      0
 C                    30   R32      28   A32      31   D32      0
 H                    32   R33      30   A33      28   D33      0
 H                    32   R34      30   A34      33   D34      0
 H                    32   R35      30   A35      33   D35      0
 C                    30   R36      28   A36      31   D36      0
 O                    36   R37      30   A37      28   D37      0
 N                    36   R38      30   A38      37   D38      0
 H                    38   R39      36   A39      30   D39      0
 C                    38   R40      36   A40      39   D40      0
 H                    40   R41      38   A41      36   D41      0
 H                    40   R42      38   A42      41   D42      0
 H                    40   R43      38   A43      41   D43      0
       Variables:
  R2                    1.09558                  
  R3                    1.09665                  
  R4                    1.09697                  
  R5                    1.51953                  
  R6                    1.24825                  
  R7                    1.35858                  
  R8                    1.01262                  
  R9                    1.44722                  
  R10                   1.10152                  
  R11                   1.10147                  
  R12                   1.52647                  
  R13                   1.25454                  
  R14                   1.35092                  
  R15                   1.48071                  
  R16                   1.0971                   
  R17                   1.10063                  
  R18                   1.54752                  
  R19                   1.0965                   
  R20                   1.09579                  
  R21                   1.55051                  
  R22                   1.09338                  
  R23                   1.09851                  
  R24                   1.48202                  
  R25                   1.0972                   
  R26                   1.5481                   
  R27                   1.25046                  
  R28                   1.35151                  
  R29                   1.02013                  
  R30                   1.4563                   
  R31                   1.0994                   
  R32                   1.55242                  
  R33                   1.09806                  
  R34                   1.0963                   
  R35                   1.09745                  
  R36                   1.53352                  
  R37                   1.24455                  
  R38                   1.35731                  
  R39                   1.00855                  
  R40                   1.46107                  
  R41                   1.09379                  
  R42                   1.09654                  
  R43                   1.09704                  
  A3                  109.29903                  
  A4                  109.23867                  
  A5                  112.84916                  
  A6                  121.964                    
  A7                  116.61482                  
  A8                  122.96524                  
  A9                  120.97044                  
  A10                 110.58122                  
  A11                 110.4367                   
  A12                 108.60666                  
  A13                 120.83131                  
  A14                 116.94644                  
  A15                 125.57107                  
  A16                 110.91923                  
  A17                 109.86112                  
  A18                 103.41073                  
  A19                 110.44612                  
  A20                 111.71794                  
  A21                 103.71449                  
  A22                 112.04327                  
  A23                 110.82629                  
  A24                 121.08784                  
  A25                 108.53287                  
  A26                 110.83284                  
  A27                 121.47021                  
  A28                 115.87771                  
  A29                 121.40569                  
  A30                 120.86431                  
  A31                 107.87062                  
  A32                 111.52986                  
  A33                 111.07674                  
  A34                 108.74104                  
  A35                 109.76729                  
  A36                 107.74767                  
  A37                 121.6216                   
  A38                 115.94231                  
  A39                 119.77652                  
  A40                 121.14629                  
  A41                 108.8904                   
  A42                 110.30485                  
  A43                 110.58397                  
  D4                 -117.59975                  
  D5                  121.21888                  
  D6                 -178.64004                  
  D7                 -179.87503                  
  D8                   -0.14554                  
  D9                  179.92775                  
  D10                  59.75138                  
  D11                -117.43961                  
  D12                 121.20155                  
  D13                  -0.31294                  
  D14                 179.9674                   
  D15                  -3.49766                  
  D16                  60.22497                  
  D17                -120.12192                  
  D18                 120.86722                  
  D19                 -89.53502                  
  D20                -121.3652                   
  D21                 116.80502                  
  D22                -157.60085                  
  D23                -122.76328                  
  D24                -171.26104                  
  D25                  35.59186                  
  D26                -119.71566                  
  D27                -105.79814                  
  D28                -179.52788                  
  D29                  -2.71274                  
  D30                -177.10861                  
  D31                 -40.31763                  
  D32                 119.43243                  
  D33                -178.17464                  
  D34                 119.644                    
  D35                -120.48616                  
  D36                -119.15799                  
  D37                 -23.59973                  
  D38                -177.96525                  
  D39                  -4.71788                  
  D40                -178.61268                  
  D41                -177.75789                  
  D42                 120.18989                  
  D43                -120.35612                  
 
 NAtoms=     43 NQM=       43 NQMF=       0 NMMI=      0 NMMIF=      0
                NMic=       0 NMicF=      0.
                    Isotopes and Nuclear Properties:
 (Nuclear quadrupole moments (NQMom) in fm**2, nuclear magnetic moments (NMagM)
  in nuclear magnetons)

  Atom         1           2           3           4           5           6           7           8           9          10
 IAtWgt=          12           1           1           1          12          16          14           1          12           1
 AtmWgt=  12.0000000   1.0078250   1.0078250   1.0078250  12.0000000  15.9949146  14.0030740   1.0078250  12.0000000   1.0078250
 NucSpn=           0           1           1           1           0           0           2           1           0           1
 AtZEff=   0.0000000   0.0000000   0.0000000   0.0000000   0.0000000   0.0000000   0.0000000   0.0000000   0.0000000   0.0000000
 NQMom=    0.0000000   0.0000000   0.0000000   0.0000000   0.0000000   0.0000000   2.0440000   0.0000000   0.0000000   0.0000000
 NMagM=    0.0000000   2.7928460   2.7928460   2.7928460   0.0000000   0.0000000   0.4037610   2.7928460   0.0000000   2.7928460
 AtZNuc=   6.0000000   1.0000000   1.0000000   1.0000000   6.0000000   8.0000000   7.0000000   1.0000000   6.0000000   1.0000000

  Atom        11          12          13          14          15          16          17          18          19          20
 IAtWgt=           1          12          16          14          12           1           1          12           1           1
 AtmWgt=   1.0078250  12.0000000  15.9949146  14.0030740  12.0000000   1.0078250   1.0078250  12.0000000   1.0078250   1.0078250
 NucSpn=           1           0           0           2           0           1           1           0           1           1
 AtZEff=   0.0000000   0.0000000   0.0000000   0.0000000   0.0000000   0.0000000   0.0000000   0.0000000   0.0000000   0.0000000
 NQMom=    0.0000000   0.0000000   0.0000000   2.0440000   0.0000000   0.0000000   0.0000000   0.0000000   0.0000000   0.0000000
 NMagM=    2.7928460   0.0000000   0.0000000   0.4037610   0.0000000   2.7928460   2.7928460   0.0000000   2.7928460   2.7928460
 AtZNuc=   1.0000000   6.0000000   8.0000000   7.0000000   6.0000000   1.0000000   1.0000000   6.0000000   1.0000000   1.0000000

  Atom        21          22          23          24          25          26          27          28          29          30
 IAtWgt=          12           1           1          12           1          12          16          14           1          12
 AtmWgt=  12.0000000   1.0078250   1.0078250  12.0000000   1.0078250  12.0000000  15.9949146  14.0030740   1.0078250  12.0000000
 NucSpn=           0           1           1           0           1           0           0           2           1           0
 AtZEff=   0.0000000   0.0000000   0.0000000   0.0000000   0.0000000   0.0000000   0.0000000   0.0000000   0.0000000   0.0000000
 NQMom=    0.0000000   0.0000000   0.0000000   0.0000000   0.0000000   0.0000000   0.0000000   2.0440000   0.0000000   0.0000000
 NMagM=    0.0000000   2.7928460   2.7928460   0.0000000   2.7928460   0.0000000   0.0000000   0.4037610   2.7928460   0.0000000
 AtZNuc=   6.0000000   1.0000000   1.0000000   6.0000000   1.0000000   6.0000000   8.0000000   7.0000000   1.0000000   6.0000000

  Atom        31          32          33          34          35          36          37          38          39          40
 IAtWgt=           1          12           1           1           1          12          16          14           1          12
 AtmWgt=   1.0078250  12.0000000   1.0078250   1.0078250   1.0078250  12.0000000  15.9949146  14.0030740   1.0078250  12.0000000
 NucSpn=           1           0           1           1           1           0           0           2           1           0
 AtZEff=   0.0000000   0.0000000   0.0000000   0.0000000   0.0000000   0.0000000   0.0000000   0.0000000   0.0000000   0.0000000
 NQMom=    0.0000000   0.0000000   0.0000000   0.0000000   0.0000000   0.0000000   0.0000000   2.0440000   0.0000000   0.0000000
 NMagM=    2.7928460   0.0000000   2.7928460   2.7928460   2.7928460   0.0000000   0.0000000   0.4037610   2.7928460   0.0000000
 AtZNuc=   1.0000000   6.0000000   1.0000000   1.0000000   1.0000000   6.0000000   8.0000000   7.0000000   1.0000000   6.0000000

  Atom        41          42          43
 IAtWgt=           1           1           1
 AtmWgt=   1.0078250   1.0078250   1.0078250
 NucSpn=           1           1           1
 AtZEff=   0.0000000   0.0000000   0.0000000
 NQMom=    0.0000000   0.0000000   0.0000000
 NMagM=    2.7928460   2.7928460   2.7928460
 AtZNuc=   1.0000000   1.0000000   1.0000000
 Leave Link  101 at Thu Apr  6 11:59:47 2023, MaxMem=    33554432 cpu:         1.4
 (Enter /hits/basement/its/doserbd/software/gaussian/g09d1/g09/l103.exe)

 GradGradGradGradGradGradGradGradGradGradGradGradGradGradGradGradGradGrad
 Berny optimization.
 Initialization pass.
                       ----------------------------
                       !    Initial Parameters    !
                       ! (Angstroms and Degrees)  !
 ----------------------                            ----------------------
 !      Name          Value   Derivative information (Atomic Units)     !
 ------------------------------------------------------------------------
 !       R2          1.0956   estimate D2E/DX2                          !
 !       R3          1.0967   estimate D2E/DX2                          !
 !       R4          1.097    estimate D2E/DX2                          !
 !       R5          1.5195   estimate D2E/DX2                          !
 !       R6          1.2483   estimate D2E/DX2                          !
 !       R7          1.3586   estimate D2E/DX2                          !
 !       R8          1.0126   estimate D2E/DX2                          !
 !       R9          1.4472   estimate D2E/DX2                          !
 !       R10         1.1015   estimate D2E/DX2                          !
 !       R11         1.1015   estimate D2E/DX2                          !
 !       R12         1.5265   estimate D2E/DX2                          !
 !       R13         1.2545   estimate D2E/DX2                          !
 !       R14         1.3509   estimate D2E/DX2                          !
 !       R15         1.4807   estimate D2E/DX2                          !
 !       R16         1.0971   estimate D2E/DX2                          !
 !       R17         1.1006   estimate D2E/DX2                          !
 !       R18         1.5475   estimate D2E/DX2                          !
 !       R19         1.0965   estimate D2E/DX2                          !
 !       R20         1.0958   estimate D2E/DX2                          !
 !       R21         1.5505   estimate D2E/DX2                          !
 !       R22         1.0934   estimate D2E/DX2                          !
 !       R23         1.0985   estimate D2E/DX2                          !
 !       R24         1.482    estimate D2E/DX2                          !
 !       R25         1.0972   estimate D2E/DX2                          !
 !       R26         1.5481   estimate D2E/DX2                          !
 !       R27         1.2505   estimate D2E/DX2                          !
 !       R28         1.3515   estimate D2E/DX2                          !
 !       R29         1.0201   estimate D2E/DX2                          !
 !       R30         1.4563   estimate D2E/DX2                          !
 !       R31         1.0994   estimate D2E/DX2                          !
 !       R32         1.5524   estimate D2E/DX2                          !
 !       R33         1.0981   estimate D2E/DX2                          !
 !       R34         1.0963   estimate D2E/DX2                          !
 !       R35         1.0974   estimate D2E/DX2                          !
 !       R36         1.5335   estimate D2E/DX2                          !
 !       R37         1.2445   estimate D2E/DX2                          !
 !       R38         1.3573   estimate D2E/DX2                          !
 !       R39         1.0086   estimate D2E/DX2                          !
 !       R40         1.4611   estimate D2E/DX2                          !
 !       R41         1.0938   estimate D2E/DX2                          !
 !       R42         1.0965   estimate D2E/DX2                          !
 !       R43         1.097    estimate D2E/DX2                          !
 !       A3        109.299    estimate D2E/DX2                          !
 !       A4        109.2387   estimate D2E/DX2                          !
 !       A5        112.8492   estimate D2E/DX2                          !
 !       A6        121.964    estimate D2E/DX2                          !
 !       A7        116.6148   estimate D2E/DX2                          !
 !       A8        122.9652   estimate D2E/DX2                          !
 !       A9        120.9704   estimate D2E/DX2                          !
 !       A10       110.5812   estimate D2E/DX2                          !
 !       A11       110.4367   estimate D2E/DX2                          !
 !       A12       108.6067   estimate D2E/DX2                          !
 !       A13       120.8313   estimate D2E/DX2                          !
 !       A14       116.9464   estimate D2E/DX2                          !
 !       A15       125.5711   estimate D2E/DX2                          !
 !       A16       110.9192   estimate D2E/DX2                          !
 !       A17       109.8611   estimate D2E/DX2                          !
 !       A18       103.4107   estimate D2E/DX2                          !
 !       A19       110.4461   estimate D2E/DX2                          !
 !       A20       111.7179   estimate D2E/DX2                          !
 !       A21       103.7145   estimate D2E/DX2                          !
 !       A22       112.0433   estimate D2E/DX2                          !
 !       A23       110.8263   estimate D2E/DX2                          !
 !       A24       121.0878   estimate D2E/DX2                          !
 !       A25       108.5329   estimate D2E/DX2                          !
 !       A26       110.8328   estimate D2E/DX2                          !
 !       A27       121.4702   estimate D2E/DX2                          !
 !       A28       115.8777   estimate D2E/DX2                          !
 !       A29       121.4057   estimate D2E/DX2                          !
 !       A30       120.8643   estimate D2E/DX2                          !
 !       A31       107.8706   estimate D2E/DX2                          !
 !       A32       111.5299   estimate D2E/DX2                          !
 !       A33       111.0767   estimate D2E/DX2                          !
 !       A34       108.741    estimate D2E/DX2                          !
 !       A35       109.7673   estimate D2E/DX2                          !
 !       A36       107.7477   estimate D2E/DX2                          !
 !       A37       121.6216   estimate D2E/DX2                          !
 !       A38       115.9423   estimate D2E/DX2                          !
 !       A39       119.7765   estimate D2E/DX2                          !
 !       A40       121.1463   estimate D2E/DX2                          !
 !       A41       108.8904   estimate D2E/DX2                          !
 !       A42       110.3048   estimate D2E/DX2                          !
 !       A43       110.584    estimate D2E/DX2                          !
 !       D4       -117.5997   estimate D2E/DX2                          !
 !       D5        121.2189   estimate D2E/DX2                          !
 !       D6       -178.64     estimate D2E/DX2                          !
 !       D7       -179.875    estimate D2E/DX2                          !
 !       D8         -0.1455   estimate D2E/DX2                          !
 !       D9        179.9277   estimate D2E/DX2                          !
 !       D10        59.7514   estimate D2E/DX2                          !
 !       D11      -117.4396   estimate D2E/DX2                          !
 !       D12       121.2015   estimate D2E/DX2                          !
 !       D13        -0.3129   estimate D2E/DX2                          !
 !       D14       179.9674   estimate D2E/DX2                          !
 !       D15        -3.4977   estimate D2E/DX2                          !
 !       D16        60.225    estimate D2E/DX2                          !
 !       D17      -120.1219   estimate D2E/DX2                          !
 !       D18       120.8672   estimate D2E/DX2                          !
 !       D19       -89.535    estimate D2E/DX2                          !
 !       D20      -121.3652   estimate D2E/DX2                          !
 !       D21       116.805    estimate D2E/DX2                          !
 !       D22      -157.6009   estimate D2E/DX2                          !
 !       D23      -122.7633   estimate D2E/DX2                          !
 !       D24      -171.261    estimate D2E/DX2                          !
 !       D25        35.5919   estimate D2E/DX2                          !
 !       D26      -119.7157   estimate D2E/DX2                          !
 !       D27      -105.7981   estimate D2E/DX2                          !
 !       D28      -179.5279   estimate D2E/DX2                          !
 !       D29        -2.7127   estimate D2E/DX2                          !
 !       D30      -177.1086   estimate D2E/DX2                          !
 !       D31       -40.3176   estimate D2E/DX2                          !
 !       D32       119.4324   estimate D2E/DX2                          !
 !       D33      -178.1746   estimate D2E/DX2                          !
 !       D34       119.644    estimate D2E/DX2                          !
 !       D35      -120.4862   estimate D2E/DX2                          !
 !       D36      -119.158    estimate D2E/DX2                          !
 !       D37       -23.5997   estimate D2E/DX2                          !
 !       D38      -177.9653   estimate D2E/DX2                          !
 !       D39        -4.7179   estimate D2E/DX2                          !
 !       D40      -178.6127   estimate D2E/DX2                          !
 !       D41      -177.7579   estimate D2E/DX2                          !
 !       D42       120.1899   estimate D2E/DX2                          !
 !       D43      -120.3561   estimate D2E/DX2                          !
 ------------------------------------------------------------------------
 Trust Radius=3.00D-01 FncErr=1.00D-07 GrdErr=1.00D-07
 Number of steps in this run=      2 maximum allowed number of steps=      2.
 GradGradGradGradGradGradGradGradGradGradGradGradGradGradGradGradGradGrad

 Leave Link  103 at Thu Apr  6 11:59:47 2023, MaxMem=    33554432 cpu:         0.1
 (Enter /hits/basement/its/doserbd/software/gaussian/g09d1/g09/l202.exe)
                          Input orientation:                          
 ---------------------------------------------------------------------
 Center     Atomic      Atomic             Coordinates (Angstroms)
 Number     Number       Type             X           Y           Z
 ---------------------------------------------------------------------
      1          6           0        0.000000    0.000000    0.000000
      2          1           0        0.000000    0.000000    1.095583
      3          1           0        1.035029    0.000000   -0.362442
      4          1           0       -0.479837    0.917853   -0.361457
      5          6           0       -0.725784   -1.197521   -0.590043
      6          8           0       -0.806840   -1.379753   -1.822257
      7          7           0       -1.287782   -2.064072    0.292555
      8          1           0       -1.236092   -1.939290    1.296131
      9          6           0       -2.005584   -3.233832   -0.166639
     10          1           0       -1.345850   -3.883508   -0.763319
     11          1           0       -2.834510   -2.940577   -0.830052
     12          6           0       -2.534844   -3.989123    1.049723
     13          8           0       -2.314784   -3.571116    2.211925
     14          7           0       -3.242895   -5.114593    0.811039
     15          6           0       -3.608997   -5.634580   -0.526158
     16          1           0       -2.713013   -5.848547   -1.122021
     17          1           0       -4.218745   -4.891473   -1.062250
     18          6           0       -4.425767   -6.909013   -0.204398
     19          1           0       -3.764242   -7.780799   -0.135898
     20          1           0       -5.190830   -7.102981   -0.964539
     21          6           0       -5.027436   -6.616627    1.194387
     22          1           0       -5.296071   -7.533856    1.725429
     23          1           0       -5.909272   -5.966766    1.112160
     24          6           0       -3.896526   -5.856097    1.915267
     25          1           0       -4.258917   -5.131622    2.655311
     26          6           0       -2.896256   -6.819438    2.599403
     27          8           0       -2.949182   -8.054974    2.414218
     28          7           0       -1.980107   -6.241907    3.407920
     29          1           0       -1.932643   -5.228972    3.519180
     30          6           0       -0.984585   -7.045981    4.103060
     31          1           0       -1.479451   -7.960031    4.461266
     32          6           0        0.183595   -7.445233    3.161812
     33          1           0        0.913240   -8.077871    3.684432
     34          1           0       -0.224254   -8.005567    2.312369
     35          1           0        0.691652   -6.543228    2.797598
     36          6           0       -0.462397   -6.222723    5.286807
     37          8           0       -0.527386   -4.979909    5.296474
     38          7           0        0.109354   -6.929034    6.295036
     39          1           0        0.104665   -7.937151    6.265745
     40          6           0        0.709243   -6.255166    7.444274
     41          1           0        1.142583   -7.007571    8.109466
     42          1           0        1.493461   -5.563871    7.113337
     43          1           0       -0.046328   -5.676015    7.989434
 ---------------------------------------------------------------------
                    Distance matrix (angstroms):
                    1          2          3          4          5
     1  C    0.000000
     2  H    1.095583   0.000000
     3  H    1.096653   1.788050   0.000000
     4  H    1.096973   1.787642   1.771235   0.000000
     5  C    1.519530   2.191382   2.141570   2.141857   0.000000
     6  O    2.423908   3.326935   2.725300   2.742237   1.248250
     7  N    2.450380   2.561958   3.175667   3.157908   1.358577
     8  H    2.639834   2.308460   3.416094   3.388626   2.090045
     9  C    3.808911   4.009144   4.443122   4.427454   2.442073
    10  H    4.180383   4.510927   4.572845   4.895359   2.762070
    11  H    4.167784   4.515474   4.882518   4.544398   2.746374
    12  C    4.841535   4.726589   5.536362   5.503899   3.708716
    13  O    4.796218   4.399695   5.531860   5.490006   4.001237
    14  N    6.110091   6.062705   6.770285   6.737926   4.862338
    15  C    6.711944   6.885012   7.303579   7.263136   5.291927
    16  H    6.544072   6.817896   6.987866   7.165871   5.085678
    17  H    6.546197   6.810328   7.212377   6.943977   5.105784
    18  C    8.207537   8.307336   8.807936   8.766691   6.816138
    19  H    8.644583   8.730801   9.144678   9.300792   7.264848
    20  H    8.850276   9.035550   9.464469   9.321531   7.412917
    21  C    8.395322   8.310513   9.108071   8.936985   7.145286
    22  H    9.369337   9.230605  10.059872   9.949000   8.148502
    23  H    8.471050   8.397742   9.273622   8.890911   7.246498
    24  C    7.290064   7.081573   7.987619   7.921088   6.167051
    25  H    7.177924   6.848699   7.966570   7.744578   6.204233
    26  C    7.851747   7.560060   8.410247   8.629684   6.818318
    27  O    8.911158   8.678657   9.405658   9.711523   7.809850
    28  N    7.382150   6.944720   7.891012   8.229288   6.557657
    29  H    6.592563   6.078740   7.156551   7.413060   5.881736
    30  C    8.212817   7.724000   8.582855   9.143814   7.503111
    31  H    9.244120   8.768049   9.641206  10.152571   8.474389
    32  C    8.090875   7.728810   8.281111   9.099164   7.344201
    33  H    8.925304   8.531597   9.035708   9.961573   8.264185
    34  H    8.335853   8.100615   8.534021   9.318911   7.417885
    35  H    7.149740   6.796255   7.274448   8.186559   6.485509
    36  C    8.178412   7.516811   8.536895   9.104450   7.736885
    37  O    7.289051   6.536445   7.698309   8.173007   6.999779
    38  N    9.362208   8.663589   9.653517  10.306778   8.997333
    39  H   10.112808   9.473115  10.382525  11.075764   9.649564
    40  C    9.749222   8.940693  10.008899  10.667499   9.601527
    41  H   10.778450   9.980286  10.995038  11.713289  10.626803
    42  H    9.153505   8.330693   9.330278  10.088568   9.128643
    43  H    9.800528   8.929976  10.155802  10.649151   9.701855
                    6          7          8          9         10
     6  O    0.000000
     7  N    2.274209   0.000000
     8  H    3.197136   1.012624   0.000000
     9  C    2.759649   1.447217   2.099441   0.000000
    10  H    2.771401   2.104421   2.834319   1.101524   0.000000
    11  H    2.744464   2.102588   2.842212   1.101469   1.763428
    12  C    4.247714   2.415427   2.439117   1.526472   2.170710
    13  O    4.832244   2.647620   2.159887   2.422174   3.144598
    14  N    5.178575   3.660187   3.787496   2.454395   2.755532
    15  C    5.256948   4.336687   4.754638   2.909257   2.871295
    16  H    4.908558   4.284222   4.828151   2.872272   2.420575
    17  H    4.954884   4.291881   4.813893   2.906540   3.059229
    18  C    6.803441   5.793735   6.092927   4.400644   4.353386
    19  H    7.250063   6.244789   6.524222   4.875318   4.629379
    20  H    7.260191   6.496513   6.885803   5.074717   5.018901
    21  C    7.371459   5.960207   6.021804   4.735745   4.985643
    22  H    8.403110   6.930949   6.925814   5.735629   5.926480
    23  H    7.462325   6.104174   6.171955   4.933866   5.355578
    24  C    6.599462   4.880389   4.775209   3.845292   4.191883
    25  H    6.785423   4.880586   4.601720   4.079524   4.661629
    26  C    7.314841   5.524693   5.317002   4.615285   4.725605
    27  O    8.191210   6.569065   6.448751   5.549290   5.483480
    28  N    7.236839   5.257292   4.850333   4.671899   4.833587
    29  H    6.679436   4.565473   4.031022   4.191797   4.527074
    30  C    8.200433   6.279434   5.832701   5.814228   5.814929
    31  H    9.123328   7.223380   6.806366   6.635607   6.628135
    32  C    7.912771   6.273315   5.984287   5.797154   5.516497
    33  H    8.840084   7.246731   6.928621   6.842149   6.517566
    34  H    7.831727   6.364912   6.233480   5.664634   5.263954
    35  H    7.088724   5.500567   5.212183   5.197489   4.889341
    36  C    8.608820   6.551197   5.905243   6.407415   6.546483
    37  O    7.982202   5.841191   5.074483   5.922791   6.212332
    38  N    9.875442   7.851727   7.190050   7.738263   7.823888
    39  H   10.452085   8.491817   7.903736   8.243175   8.242801
    40  C   10.580016   8.526456   7.759560   8.626977   8.787079
    41  H   11.580661   9.562894   8.818566   9.625278   9.730282
    42  H   10.131291   8.155180   7.377529   8.406571   8.539731
    43  H   10.738041   8.592397   7.757510   8.736387   9.028429
                   11         12         13         14         15
    11  H    0.000000
    12  C    2.173201   0.000000
    13  O    3.149812   1.254540   0.000000
    14  N    2.754325   1.350921   2.281708   0.000000
    15  C    2.819545   2.518875   3.664692   1.480714   0.000000
    16  H    2.925115   2.864554   4.057151   2.134522   1.097097
    17  H    2.403335   2.847839   4.011063   2.123977   1.100634
    18  C    4.321115   3.697860   4.629948   2.377024   1.547522
    19  H    4.977348   4.158596   5.033351   2.877003   2.186929
    20  H    4.784970   4.561537   5.552984   3.301639   2.202402
    21  C    4.735042   3.624599   4.203451   2.363821   2.436526
    22  H    5.804135   4.543796   4.982777   3.302193   3.394571
    23  H    4.731191   3.911743   4.457462   2.815393   2.843536
    24  C    4.143056   2.467577   2.794826   1.482019   2.468258
    25  H    4.356302   2.618329   2.532079   2.105690   3.285895
    26  C    5.177889   3.246969   3.322626   2.494975   3.417750
    27  O    6.057681   4.308674   4.533031   3.361888   3.865162
    28  N    5.439595   3.308151   2.945427   3.099881   4.301057
    29  H    4.996592   2.828090   2.145562   3.010626   4.397663
    30  C    6.679233   4.590267   4.173789   4.434819   5.505383
    31  H    7.418163   5.340467   5.001989   4.952818   5.900600
    32  C    6.733191   4.878066   4.706695   4.764331   5.591363
    33  H    7.798589   5.962285   5.735788   5.857547   6.644499
    34  H    6.507101   4.802596   4.903546   4.441161   5.013511
    35  H    6.210697   4.470884   4.267919   4.633366   5.510769
    36  C    7.335896   5.218897   4.462876   5.384387   6.636081
    37  O    6.856823   4.800671   3.833267   5.245117   6.620269
    38  N    8.679919   6.568726   5.815828   6.678621   7.875939
    39  H    9.162687   7.054135   6.430355   6.994770   8.076080
    40  C    9.592140   7.519929   6.612590   7.805133   9.086259
    41  H   10.595881   8.513194   7.651380   8.722547   9.951714
    42  H    9.418621   7.448120   6.519022   7.896447   9.187053
    43  H    9.645720   7.562930   6.554091   7.877981   9.230906
                   16         17         18         19         20
    16  H    0.000000
    17  H    1.785159   0.000000
    18  C    2.213628   2.202098   0.000000
    19  H    2.410626   3.068045   1.096502   0.000000
    20  H    2.781723   2.417698   1.095792   1.783603   0.000000
    21  C    3.363368   2.953395   1.550514   2.172697   2.219054
    22  H    4.197670   3.989232   2.207281   2.423225   2.726291
    23  H    3.901489   2.956720   2.195892   3.074007   2.473827
    24  C    3.259736   3.146415   2.425223   2.815893   3.394588
    25  H    4.143916   3.725526   3.371186   3.879908   4.225877
    26  C    3.850351   4.344390   3.195109   3.026464   4.248194
    27  O    4.174816   4.868815   3.217247   2.691206   4.165007
    28  N    4.605676   5.178570   4.413063   4.255581   5.492594
    29  H    4.746956   5.131244   4.785732   4.819353   5.850763
    30  C    5.632298   6.463909   5.514951   5.122032   6.586069
    31  H    6.095337   6.886872   5.617280   5.136760   6.629346
    32  C    5.412113   6.613999   5.732810   5.154892   6.784420
    33  H    6.420404   7.682538   6.707773   6.046653   7.734534
    34  H    4.758328   6.086180   5.018889   4.309993   6.018278
    35  H    5.238105   6.460551   5.944221   5.476493   7.005041
    36  C    6.802820   7.496192   6.806807   6.537240   7.887476
    37  O    6.835830   7.353048   7.012732   6.916132   8.090454
    38  N    8.009116   8.775747   7.925298   7.555604   8.990197
    39  H    8.178060   9.037009   7.965214   7.481572   9.000840
    40  C    9.233557   9.925002   9.235693   8.933008  10.307172
    41  H   10.071212  10.832455  10.006826   9.626050  11.066111
    42  H    9.251842   9.996081   9.507676   9.225487  10.597202
    43  H    9.495240   9.997877   9.372227   9.180088  10.424767
                   21         22         23         24         25
    21  C    0.000000
    22  H    1.093380   0.000000
    23  H    1.098506   1.791058   0.000000
    24  C    1.541763   2.193089   2.169880   0.000000
    25  H    2.220397   2.776886   2.408829   1.097204   0.000000
    26  C    2.560690   2.652044   3.466585   1.548098   2.169952
    27  O    2.806416   2.500776   3.849429   2.445705   3.212401
    28  N    3.785018   3.936436   4.559009   2.459578   2.644263
    29  H    4.111933   4.454512   4.706556   2.612022   2.483404
    30  C    4.998937   4.947733   5.861974   3.831666   4.059803
    31  H    5.006539   4.715190   5.900249   4.092786   4.357384
    32  C    5.631358   5.665491   6.596209   4.552649   5.034407
    33  H    6.605089   6.533697   7.590786   5.585703   6.040752
    34  H    5.123436   5.127410   6.157649   4.273581   4.965448
    35  H    5.940004   6.163094   6.837048   4.722503   5.149856
    36  C    6.143505   6.145477   6.867434   4.826483   4.746455
    37  O    6.305269   6.481926   6.888184   4.852976   4.574176
    38  N    7.245746   7.103924   8.000752   6.031637   5.963227
    39  H    7.334911   7.067182   8.161452   6.266337   6.320370
    40  C    8.491245   8.390711   9.164257   7.207099   6.991361
    41  H    9.275791   9.082355   9.988706   8.067628   7.902101
    42  H    8.869293   8.888652   9.538182   7.493816   7.290451
    43  H    8.477550   8.381476   9.041878   7.193883   6.818734
                   26         27         28         29         30
    26  C    0.000000
    27  O    1.250458   0.000000
    28  N    1.351507   2.283367   0.000000
    29  H    2.074637   3.200091   1.020132   0.000000
    30  C    2.442702   2.780269   1.456303   2.131021   0.000000
    31  H    2.602849   2.521810   2.076570   2.924310   1.099405
    32  C    3.192712   3.277953   2.488005   3.085124   1.552416
    33  H    4.156105   4.065990   3.437831   4.030209   2.200406
    34  H    2.937496   2.727278   2.719145   3.476272   2.169212
    35  H    3.603978   3.960812   2.757097   3.022396   2.183292
    36  C    3.674491   4.218177   2.415374   2.504730   1.533523
    37  O    4.033560   4.860918   2.696233   2.279376   2.429387
    38  N    4.764809   5.067852   3.629522   3.842569   2.452578
    39  H    4.867944   4.916719   3.922664   4.362164   2.580282
    40  C    6.065542   6.474940   4.850251   4.841384   3.828597
    41  H    6.834356   7.090518   5.695786   5.804409   4.536256
    42  H    6.420410   6.929963   5.124014   4.976777   4.171226
    43  H    6.203381   6.720792   5.004998   4.872495   4.226232
                   31         32         33         34         35
    31  H    0.000000
    32  C    2.172400   0.000000
    33  H    2.518399   1.098064   0.000000
    34  H    2.489046   1.096298   1.783726   0.000000
    35  H    3.080391   1.097446   1.786254   1.792420   0.000000
    36  C    2.175812   2.535241   2.810972   3.475994   2.762375
    37  O    3.238074   3.337679   3.777758   4.260444   3.189734
    38  N    2.636279   3.176329   2.963328   4.139064   3.566509
    39  H    2.401269   3.143663   2.708649   3.967626   3.783599
    40  C    4.073731   4.475718   4.183334   5.501979   4.655629
    41  H    4.592560   5.058705   4.558407   6.039088   5.351158
    42  H    4.649007   4.568350   4.291182   5.653469   4.497514
    43  H    4.440556   5.146740   5.022224   6.139018   5.315245
                   36         37         38         39         40
    36  C    0.000000
    37  O    1.244549   0.000000
    38  N    1.357313   2.280713   0.000000
    39  H    2.054055   3.175572   1.008553   0.000000
    40  C    2.455291   2.787216   1.461066   2.140915   0.000000
    41  H    3.340562   3.848784   2.089471   2.310996   1.093791
    42  H    2.756025   2.779537   2.109274   2.877433   1.096542
    43  H    2.788583   2.822767   2.113120   2.847216   1.097043
                   41         42         43
    41  H    0.000000
    42  H    1.788759   0.000000
    43  H    1.789122   1.775126   0.000000
 Stoichiometry    C13H22N4O4
 Framework group  C1[X(C13H22N4O4)]
 Deg. of freedom   123
 Full point group                 C1      NOp   1
 Largest Abelian subgroup         C1      NOp   1
 Largest concise Abelian subgroup C1      NOp   1
                         Standard orientation:                         
 ---------------------------------------------------------------------
 Center     Atomic      Atomic             Coordinates (Angstroms)
 Number     Number       Type             X           Y           Z
 ---------------------------------------------------------------------
      1          6           0       -4.468763   -3.605425   -0.146875
      2          1           0       -3.616160   -3.992162   -0.715914
      3          1           0       -4.601738   -4.206855    0.760455
      4          1           0       -5.380210   -3.704613   -0.749183
      5          6           0       -4.300498   -2.148646    0.251188
      6          8           0       -5.159714   -1.544400    0.925549
      7          7           0       -3.164912   -1.530828   -0.166516
      8          1           0       -2.452739   -1.998313   -0.713941
      9          6           0       -2.910638   -0.142950    0.155317
     10          1           0       -2.882842    0.002629    1.246825
     11          1           0       -3.725568    0.494875   -0.221911
     12          6           0       -1.578603    0.265504   -0.468354
     13          8           0       -0.897968   -0.557097   -1.127091
     14          7           0       -1.178392    1.541411   -0.276314
     15          6           0       -1.953912    2.591463    0.422592
     16          1           0       -2.157780    2.302105    1.461019
     17          1           0       -2.913162    2.753020   -0.092321
     18          6           0       -1.042158    3.837832    0.322126
     19          1           0       -0.360685    3.884046    1.179900
     20          1           0       -1.625350    4.764672    0.281925
     21          6           0       -0.218985    3.588098   -0.967878
     22          1           0        0.716247    4.154477   -0.973959
     23          1           0       -0.807223    3.838569   -1.861162
     24          6           0        0.040036    2.068604   -0.935011
     25          1           0        0.120917    1.616847   -1.931620
     26          6           0        1.305365    1.715142   -0.116100
     27          8           0        1.908852    2.578250    0.558061
     28          7           0        1.713511    0.428684   -0.186903
     29          1           0        1.187774   -0.267474   -0.715706
     30          6           0        2.889367   -0.023342    0.543750
     31          1           0        3.655565    0.761512    0.468685
     32          6           0        2.569178   -0.268556    2.042865
     33          1           0        3.467689   -0.577838    2.593108
     34          1           0        2.191886    0.663573    2.479506
     35          1           0        1.807567   -1.053173    2.136207
     36          6           0        3.382578   -1.315876   -0.117910
     37          8           0        2.621067   -2.038412   -0.786450
     38          7           0        4.681288   -1.639965    0.107071
     39          1           0        5.274032   -1.005851    0.620621
     40          6           0        5.250149   -2.883126   -0.408352
     41          1           0        6.290141   -2.960220   -0.078426
     42          1           0        4.683010   -3.744409   -0.035592
     43          1           0        5.211564   -2.899578   -1.504593
 ---------------------------------------------------------------------
 Rotational constants (GHZ):      0.3369806      0.1761003      0.1255762
 Leave Link  202 at Thu Apr  6 11:59:47 2023, MaxMem=    33554432 cpu:         0.1
 (Enter /hits/basement/its/doserbd/software/gaussian/g09d1/g09/l301.exe)
 Standard basis: 6-31+G (6D, 7F)
 Ernie: Thresh=  0.10000D-02 Tol=  0.10000D-05 Strict=F.
 There are   317 symmetry adapted cartesian basis functions of A   symmetry.
 There are   317 symmetry adapted basis functions of A   symmetry.
   317 basis functions,   634 primitive gaussians,   317 cartesian basis functions
    80 alpha electrons       80 beta electrons
       nuclear repulsion energy      1753.2217757163 Hartrees.
 IExCor= 3226 DFT=T Ex+Corr=BMK ExCW=0 ScaHFX=  0.420000
 ScaDFX=  1.000000  1.000000  1.000000  1.000000 ScalE2=  1.000000  1.000000
 IRadAn=      0 IRanWt=     -1 IRanGd=            0 ICorTp=0 IEmpDi=  4
 NAtoms=   43 NActive=   43 NUniq=   43 SFac= 1.00D+00 NAtFMM=   60 NAOKFM=F Big=F
 Integral buffers will be    131072 words long.
 Raffenetti 2 integral format.
 Two-electron integral symmetry is turned on.
 Leave Link  301 at Thu Apr  6 11:59:47 2023, MaxMem=    33554432 cpu:         0.4
 (Enter /hits/basement/its/doserbd/software/gaussian/g09d1/g09/l302.exe)
 NPDir=0 NMtPBC=     1 NCelOv=     1 NCel=       1 NClECP=     1 NCelD=      1
         NCelK=      1 NCelE2=     1 NClLst=     1 CellRange=     0.0.
 One-electron integrals computed using PRISM.
 NBasis=   317 RedAO= T EigKep=  7.53D-06  NBF=   317
 NBsUse=   317 1.00D-06 EigRej= -1.00D+00 NBFU=   317
 Precomputing XC quadrature grid using
 IXCGrd= 4 IRadAn=           0 IRanWt=          -1 IRanGd=           0 AccXCQ= 0.00D+00.
 Generated NRdTot=       0 NPtTot=           0 NUsed=           0 NTot=          32
 NSgBfM=   312   312   312   312   312 MxSgAt=    43 MxSgA2=    43.
 Leave Link  302 at Thu Apr  6 11:59:47 2023, MaxMem=    33554432 cpu:         4.6
 (Enter /hits/basement/its/doserbd/software/gaussian/g09d1/g09/l303.exe)
 DipDrv:  MaxL=1.
 Leave Link  303 at Thu Apr  6 11:59:47 2023, MaxMem=    33554432 cpu:         0.4
 (Enter /hits/basement/its/doserbd/software/gaussian/g09d1/g09/l401.exe)
 ExpMin= 4.38D-02 ExpMax= 5.48D+03 ExpMxC= 8.25D+02 IAcc=2 IRadAn=         4 AccDes= 0.00D+00
 Harris functional with IExCor= 1009 and IRadAn=       4 diagonalized for initial guess.
 HarFok:  IExCor= 1009 AccDes= 0.00D+00 IRadAn=         4 IDoV= 1 UseB2=F ITyADJ=14
 ICtDFT=  3500011 ScaDFX=  1.000000  1.000000  1.000000  1.000000
 FoFCou: FMM=F IPFlag=           0 FMFlag=      100000 FMFlg1=           0
         NFxFlg=           0 DoJE=T BraDBF=F KetDBF=T FulRan=T
         wScrn=  0.000000 ICntrl=     500 IOpCl=  0 I1Cent=   200000004 NGrid=           0
         NMat0=    1 NMatS0=      1 NMatT0=    0 NMatD0=    1 NMtDS0=    0 NMtDT0=    0
 Petite list used in FoFCou.
 Harris En= -1027.40367730652    
 JPrj=0 DoOrth=F DoCkMO=F.
 Leave Link  401 at Thu Apr  6 11:59:49 2023, MaxMem=    33554432 cpu:        13.6
 (Enter /hits/basement/its/doserbd/software/gaussian/g09d1/g09/l502.exe)
 Closed shell SCF:
 Using DIIS extrapolation, IDIIS=  1040.
 Integral symmetry usage will be decided dynamically.
 IVT=      324986 IEndB=      324986 NGot=    33554432 MDV=    33346893
 LenX=    33346893 LenY=    33245963
 Requested convergence on RMS density matrix=1.00D-08 within 128 cycles.
 Requested convergence on MAX density matrix=1.00D-06.
 Requested convergence on             energy=1.00D-06.
 No special actions if energy rises.
 Fock matrices will be formed incrementally for  20 cycles.

 Cycle   1  Pass 1  IDiag  1:
 FoFJK:  IHMeth= 1 ICntrl=       0 DoSepK=F KAlg= 0 I1Cent=   0 FoldK=F
 IRaf= 800000000 NMat=   1 IRICut=       1 DoRegI=T DoRafI=F ISym2E= 0.
 FoFCou: FMM=F IPFlag=           0 FMFlag=      100000 FMFlg1=           0
         NFxFlg=           0 DoJE=F BraDBF=F KetDBF=F FulRan=T
         wScrn=  0.000000 ICntrl=       0 IOpCl=  0 I1Cent=           0 NGrid=           0
         NMat0=    1 NMatS0=      1 NMatT0=    0 NMatD0=    1 NMtDS0=    0 NMtDT0=    0
 Symmetry not used in FoFCou.
 E= -1027.26850274104    
 DIIS: error= 2.22D-02 at cycle   1 NSaved=   1.
 NSaved= 1 IEnMin= 1 EnMin= -1027.26850274104     IErMin= 1 ErrMin= 2.22D-02
 ErrMax= 2.22D-02  0.00D+00 EMaxC= 1.00D-01 BMatC= 5.46D-01 BMatP= 5.46D-01
 IDIUse=3 WtCom= 7.78D-01 WtEn= 2.22D-01
 Coeff-Com:  0.100D+01
 Coeff-En:   0.100D+01
 Coeff:      0.100D+01
 Gap=     0.327 Goal=   None    Shift=    0.000
 GapD=    0.327 DampG=1.000 DampE=0.500 DampFc=0.5000 IDamp=-1.
 Damping current iteration by 5.00D-01
 RMSDP=3.28D-02 MaxDP=3.94D+00              OVMax= 2.65D-01

 Cycle   2  Pass 1  IDiag  1:
 RMSU=  1.33D-02    CP:  1.20D+00
 E= -1027.42900053291     Delta-E=       -0.160497791866 Rises=F Damp=T
 DIIS: error= 9.12D-03 at cycle   2 NSaved=   2.
 NSaved= 2 IEnMin= 2 EnMin= -1027.42900053291     IErMin= 2 ErrMin= 9.12D-03
 ErrMax= 9.12D-03  0.00D+00 EMaxC= 1.00D-01 BMatC= 7.23D-02 BMatP= 5.46D-01
 IDIUse=3 WtCom= 9.09D-01 WtEn= 9.12D-02
 Coeff-Com:  0.198D+00 0.802D+00
 Coeff-En:   0.288D+00 0.712D+00
 Coeff:      0.206D+00 0.794D+00
 Gap=     0.322 Goal=   None    Shift=    0.000
 RMSDP=1.62D-02 MaxDP=1.76D+00 DE=-1.60D-01 OVMax= 1.35D-01

 Cycle   3  Pass 1  IDiag  1:
 RMSU=  7.57D-03    CP:  9.31D-01  5.35D-01
 E= -1027.72063581648     Delta-E=       -0.291635283575 Rises=F Damp=F
 DIIS: error= 9.78D-03 at cycle   3 NSaved=   3.
 NSaved= 3 IEnMin= 3 EnMin= -1027.72063581648     IErMin= 2 ErrMin= 9.12D-03
 ErrMax= 9.78D-03  0.00D+00 EMaxC= 1.00D-01 BMatC= 4.67D-02 BMatP= 7.23D-02
 IDIUse=3 WtCom= 9.02D-01 WtEn= 9.78D-02
 Coeff-Com:  0.544D-01 0.443D+00 0.503D+00
 Coeff-En:   0.000D+00 0.000D+00 0.100D+01
 Coeff:      0.491D-01 0.399D+00 0.552D+00
 Gap=     0.313 Goal=   None    Shift=    0.000
 RMSDP=3.01D-03 MaxDP=2.26D-01 DE=-2.92D-01 OVMax= 4.42D-02

 Cycle   4  Pass 1  IDiag  1:
 RMSU=  2.62D-03    CP:  9.58D-01  5.55D-01  9.11D-01
 E= -1027.75905116428     Delta-E=       -0.038415347799 Rises=F Damp=F
 DIIS: error= 2.80D-03 at cycle   4 NSaved=   4.
 NSaved= 4 IEnMin= 4 EnMin= -1027.75905116428     IErMin= 4 ErrMin= 2.80D-03
 ErrMax= 2.80D-03  0.00D+00 EMaxC= 1.00D-01 BMatC= 4.35D-03 BMatP= 4.67D-02
 IDIUse=3 WtCom= 9.72D-01 WtEn= 2.80D-02
 Coeff-Com:  0.897D-02 0.328D-01 0.239D+00 0.720D+00
 Coeff-En:   0.000D+00 0.000D+00 0.306D-01 0.969D+00
 Coeff:      0.872D-02 0.319D-01 0.233D+00 0.727D+00
 Gap=     0.306 Goal=   None    Shift=    0.000
 RMSDP=9.20D-04 MaxDP=5.70D-02 DE=-3.84D-02 OVMax= 1.05D-02

 Cycle   5  Pass 1  IDiag  1:
 RMSU=  5.55D-04    CP:  9.50D-01  5.37D-01  9.36D-01  7.89D-01
 E= -1027.76244007368     Delta-E=       -0.003388909401 Rises=F Damp=F
 DIIS: error= 7.18D-04 at cycle   5 NSaved=   5.
 NSaved= 5 IEnMin= 5 EnMin= -1027.76244007368     IErMin= 5 ErrMin= 7.18D-04
 ErrMax= 7.18D-04  0.00D+00 EMaxC= 1.00D-01 BMatC= 2.63D-04 BMatP= 4.35D-03
 IDIUse=3 WtCom= 9.93D-01 WtEn= 7.18D-03
 Coeff-Com:  0.276D-02-0.108D-01 0.881D-01 0.363D+00 0.557D+00
 Coeff-En:   0.000D+00 0.000D+00 0.000D+00 0.000D+00 0.100D+01
 Coeff:      0.274D-02-0.108D-01 0.874D-01 0.361D+00 0.560D+00
 Gap=     0.307 Goal=   None    Shift=    0.000
 RMSDP=2.31D-04 MaxDP=2.16D-02 DE=-3.39D-03 OVMax= 3.38D-03

 Cycle   6  Pass 1  IDiag  1:
 RMSU=  1.62D-04    CP:  9.47D-01  5.34D-01  9.45D-01  7.90D-01  9.54D-01
 E= -1027.76266849739     Delta-E=       -0.000228423702 Rises=F Damp=F
 DIIS: error= 2.08D-04 at cycle   6 NSaved=   6.
 NSaved= 6 IEnMin= 6 EnMin= -1027.76266849739     IErMin= 6 ErrMin= 2.08D-04
 ErrMax= 2.08D-04  0.00D+00 EMaxC= 1.00D-01 BMatC= 1.89D-05 BMatP= 2.63D-04
 IDIUse=3 WtCom= 9.98D-01 WtEn= 2.08D-03
 Coeff-Com:  0.153D-02-0.814D-02 0.262D-01 0.115D+00 0.262D+00 0.604D+00
 Coeff-En:   0.000D+00 0.000D+00 0.000D+00 0.000D+00 0.000D+00 0.100D+01
 Coeff:      0.153D-02-0.813D-02 0.261D-01 0.114D+00 0.261D+00 0.605D+00
 Gap=     0.307 Goal=   None    Shift=    0.000
 RMSDP=9.73D-05 MaxDP=1.13D-02 DE=-2.28D-04 OVMax= 1.22D-03

 Cycle   7  Pass 1  IDiag  1:
 RMSU=  6.82D-05    CP:  9.46D-01  5.31D-01  9.47D-01  7.88D-01  9.65D-01
                    CP:  9.99D-01
 E= -1027.76268127985     Delta-E=       -0.000012782460 Rises=F Damp=F
 DIIS: error= 1.78D-04 at cycle   7 NSaved=   7.
 NSaved= 7 IEnMin= 7 EnMin= -1027.76268127985     IErMin= 7 ErrMin= 1.78D-04
 ErrMax= 1.78D-04  0.00D+00 EMaxC= 1.00D-01 BMatC= 4.67D-06 BMatP= 1.89D-05
 IDIUse=3 WtCom= 9.98D-01 WtEn= 1.78D-03
 Coeff-Com:  0.751D-03-0.364D-02 0.502D-03 0.236D-02 0.652D-01 0.370D+00
 Coeff-Com:  0.565D+00
 Coeff-En:   0.000D+00 0.000D+00 0.000D+00 0.000D+00 0.000D+00 0.649D-01
 Coeff-En:   0.935D+00
 Coeff:      0.750D-03-0.364D-02 0.501D-03 0.235D-02 0.651D-01 0.370D+00
 Coeff:      0.565D+00
 Gap=     0.307 Goal=   None    Shift=    0.000
 RMSDP=3.60D-05 MaxDP=3.58D-03 DE=-1.28D-05 OVMax= 4.56D-04

 Cycle   8  Pass 1  IDiag  1:
 RMSU=  2.41D-05    CP:  9.46D-01  5.29D-01  9.47D-01  7.91D-01  9.73D-01
                    CP:  1.03D+00  9.94D-01
 E= -1027.76268493682     Delta-E=       -0.000003656971 Rises=F Damp=F
 DIIS: error= 3.72D-05 at cycle   8 NSaved=   8.
 NSaved= 8 IEnMin= 8 EnMin= -1027.76268493682     IErMin= 8 ErrMin= 3.72D-05
 ErrMax= 3.72D-05  0.00D+00 EMaxC= 1.00D-01 BMatC= 3.85D-07 BMatP= 4.67D-06
 IDIUse=1 WtCom= 1.00D+00 WtEn= 0.00D+00
 Coeff-Com:  0.251D-03-0.589D-03-0.332D-02-0.170D-01-0.649D-02 0.784D-01
 Coeff-Com:  0.254D+00 0.695D+00
 Coeff:      0.251D-03-0.589D-03-0.332D-02-0.170D-01-0.649D-02 0.784D-01
 Coeff:      0.254D+00 0.695D+00
 Gap=     0.307 Goal=   None    Shift=    0.000
 RMSDP=1.31D-05 MaxDP=7.37D-04 DE=-3.66D-06 OVMax= 1.74D-04

 Cycle   9  Pass 1  IDiag  1:
 RMSU=  8.25D-06    CP:  9.46D-01  5.29D-01  9.47D-01  7.90D-01  9.84D-01
                    CP:  1.02D+00  1.04D+00  1.11D+00
 E= -1027.76268529271     Delta-E=       -0.000000355894 Rises=F Damp=F
 DIIS: error= 7.92D-06 at cycle   9 NSaved=   9.
 NSaved= 9 IEnMin= 9 EnMin= -1027.76268529271     IErMin= 9 ErrMin= 7.92D-06
 ErrMax= 7.92D-06  0.00D+00 EMaxC= 1.00D-01 BMatC= 3.39D-08 BMatP= 3.85D-07
 IDIUse=1 WtCom= 1.00D+00 WtEn= 0.00D+00
 Coeff-Com:  0.924D-05 0.198D-03-0.868D-03-0.550D-02-0.925D-02-0.276D-01
 Coeff-Com:  0.366D-02 0.245D+00 0.794D+00
 Coeff:      0.924D-05 0.198D-03-0.868D-03-0.550D-02-0.925D-02-0.276D-01
 Coeff:      0.366D-02 0.245D+00 0.794D+00
 Gap=     0.307 Goal=   None    Shift=    0.000
 RMSDP=4.81D-06 MaxDP=2.39D-04 DE=-3.56D-07 OVMax= 5.79D-05

 Cycle  10  Pass 1  IDiag  1:
 RMSU=  2.70D-06    CP:  9.46D-01  5.28D-01  9.47D-01  7.89D-01  9.87D-01
                    CP:  1.03D+00  1.04D+00  1.13D+00  9.89D-01
 E= -1027.76268532901     Delta-E=       -0.000000036297 Rises=F Damp=F
 DIIS: error= 2.73D-06 at cycle  10 NSaved=  10.
 NSaved=10 IEnMin=10 EnMin= -1027.76268532901     IErMin=10 ErrMin= 2.73D-06
 ErrMax= 2.73D-06  0.00D+00 EMaxC= 1.00D-01 BMatC= 3.47D-09 BMatP= 3.39D-08
 IDIUse=1 WtCom= 1.00D+00 WtEn= 0.00D+00
 Coeff-Com: -0.878D-05 0.126D-03-0.201D-03-0.166D-02-0.395D-02-0.185D-01
 Coeff-Com: -0.117D-01 0.802D-01 0.386D+00 0.570D+00
 Coeff:     -0.878D-05 0.126D-03-0.201D-03-0.166D-02-0.395D-02-0.185D-01
 Coeff:     -0.117D-01 0.802D-01 0.386D+00 0.570D+00
 Gap=     0.307 Goal=   None    Shift=    0.000
 RMSDP=1.35D-06 MaxDP=1.20D-04 DE=-3.63D-08 OVMax= 2.30D-05

 Cycle  11  Pass 1  IDiag  1:
 RMSU=  9.36D-07    CP:  9.46D-01  5.28D-01  9.47D-01  7.89D-01  9.87D-01
                    CP:  1.03D+00  1.05D+00  1.14D+00  1.01D+00  8.22D-01
 E= -1027.76268533155     Delta-E=       -0.000000002539 Rises=F Damp=F
 DIIS: error= 1.38D-06 at cycle  11 NSaved=  11.
 NSaved=11 IEnMin=11 EnMin= -1027.76268533155     IErMin=11 ErrMin= 1.38D-06
 ErrMax= 1.38D-06  0.00D+00 EMaxC= 1.00D-01 BMatC= 9.21D-10 BMatP= 3.47D-09
 IDIUse=1 WtCom= 1.00D+00 WtEn= 0.00D+00
 Coeff-Com: -0.688D-05 0.332D-04 0.741D-04 0.184D-03-0.304D-03-0.521D-02
 Coeff-Com: -0.711D-02-0.570D-02 0.583D-01 0.356D+00 0.604D+00
 Coeff:     -0.688D-05 0.332D-04 0.741D-04 0.184D-03-0.304D-03-0.521D-02
 Coeff:     -0.711D-02-0.570D-02 0.583D-01 0.356D+00 0.604D+00
 Gap=     0.307 Goal=   None    Shift=    0.000
 RMSDP=5.83D-07 MaxDP=3.97D-05 DE=-2.54D-09 OVMax= 6.54D-06

 Cycle  12  Pass 1  IDiag  1:
 RMSU=  3.77D-07    CP:  9.46D-01  5.28D-01  9.47D-01  7.89D-01  9.87D-01
                    CP:  1.03D+00  1.06D+00  1.15D+00  9.96D-01  8.43D-01
                    CP:  8.62D-01
 E= -1027.76268533227     Delta-E=       -0.000000000721 Rises=F Damp=F
 DIIS: error= 2.95D-07 at cycle  12 NSaved=  12.
 NSaved=12 IEnMin=12 EnMin= -1027.76268533227     IErMin=12 ErrMin= 2.95D-07
 ErrMax= 2.95D-07  0.00D+00 EMaxC= 1.00D-01 BMatC= 5.43D-11 BMatP= 9.21D-10
 IDIUse=1 WtCom= 1.00D+00 WtEn= 0.00D+00
 Coeff-Com: -0.239D-05 0.432D-05 0.554D-04 0.232D-03 0.218D-03-0.823D-03
 Coeff-Com: -0.238D-02-0.100D-01-0.789D-02 0.114D+00 0.278D+00 0.628D+00
 Coeff:     -0.239D-05 0.432D-05 0.554D-04 0.232D-03 0.218D-03-0.823D-03
 Coeff:     -0.238D-02-0.100D-01-0.789D-02 0.114D+00 0.278D+00 0.628D+00
 Gap=     0.307 Goal=   None    Shift=    0.000
 RMSDP=1.10D-07 MaxDP=7.89D-06 DE=-7.21D-10 OVMax= 1.95D-06

 Cycle  13  Pass 1  IDiag  1:
 RMSU=  7.64D-08    CP:  9.46D-01  5.28D-01  9.47D-01  7.89D-01  9.87D-01
                    CP:  1.03D+00  1.06D+00  1.15D+00  9.99D-01  8.52D-01
                    CP:  8.91D-01  9.43D-01
 E= -1027.76268533230     Delta-E=       -0.000000000035 Rises=F Damp=F
 DIIS: error= 8.19D-08 at cycle  13 NSaved=  13.
 NSaved=13 IEnMin=13 EnMin= -1027.76268533230     IErMin=13 ErrMin= 8.19D-08
 ErrMax= 8.19D-08  0.00D+00 EMaxC= 1.00D-01 BMatC= 4.70D-12 BMatP= 5.43D-11
 IDIUse=1 WtCom= 1.00D+00 WtEn= 0.00D+00
 Coeff-Com:  0.944D-07-0.222D-05 0.155D-04 0.697D-04 0.133D-03 0.299D-03
 Coeff-Com: -0.149D-03-0.342D-02-0.101D-01 0.515D-02 0.390D-01 0.245D+00
 Coeff-Com:  0.724D+00
 Coeff:      0.944D-07-0.222D-05 0.155D-04 0.697D-04 0.133D-03 0.299D-03
 Coeff:     -0.149D-03-0.342D-02-0.101D-01 0.515D-02 0.390D-01 0.245D+00
 Coeff:      0.724D+00
 Gap=     0.307 Goal=   None    Shift=    0.000
 RMSDP=6.12D-08 MaxDP=6.91D-06 DE=-3.55D-11 OVMax= 5.82D-07

 Cycle  14  Pass 1  IDiag  1:
 RMSU=  3.50D-08    CP:  9.46D-01  5.28D-01  9.47D-01  7.89D-01  9.87D-01
                    CP:  1.03D+00  1.06D+00  1.15D+00  1.00D+00  8.60D-01
                    CP:  8.85D-01  9.40D-01  1.01D+00
 E= -1027.76268533231     Delta-E=       -0.000000000002 Rises=F Damp=F
 DIIS: error= 4.03D-08 at cycle  14 NSaved=  14.
 NSaved=14 IEnMin=14 EnMin= -1027.76268533231     IErMin=14 ErrMin= 4.03D-08
 ErrMax= 4.03D-08  0.00D+00 EMaxC= 1.00D-01 BMatC= 6.40D-13 BMatP= 4.70D-12
 IDIUse=1 WtCom= 1.00D+00 WtEn= 0.00D+00
 Coeff-Com:  0.262D-06-0.135D-05 0.337D-05 0.141D-04 0.450D-04 0.179D-03
 Coeff-Com:  0.987D-04-0.845D-03-0.388D-02-0.642D-02-0.423D-02 0.609D-01
 Coeff-Com:  0.340D+00 0.614D+00
 Coeff:      0.262D-06-0.135D-05 0.337D-05 0.141D-04 0.450D-04 0.179D-03
 Coeff:      0.987D-04-0.845D-03-0.388D-02-0.642D-02-0.423D-02 0.609D-01
 Coeff:      0.340D+00 0.614D+00
 Gap=     0.307 Goal=   None    Shift=    0.000
 RMSDP=1.50D-08 MaxDP=7.68D-07 DE=-2.27D-12 OVMax= 1.63D-07

 Cycle  15  Pass 1  IDiag  1:
 RMSU=  1.05D-08    CP:  9.46D-01  5.28D-01  9.47D-01  7.89D-01  9.87D-01
                    CP:  1.03D+00  1.06D+00  1.15D+00  1.00D+00  8.60D-01
                    CP:  8.86D-01  9.53D-01  1.06D+00  8.58D-01
 E= -1027.76268533233     Delta-E=       -0.000000000026 Rises=F Damp=F
 DIIS: error= 1.27D-08 at cycle  15 NSaved=  15.
 NSaved=15 IEnMin=15 EnMin= -1027.76268533233     IErMin=15 ErrMin= 1.27D-08
 ErrMax= 1.27D-08  0.00D+00 EMaxC= 1.00D-01 BMatC= 6.72D-14 BMatP= 6.40D-13
 IDIUse=1 WtCom= 1.00D+00 WtEn= 0.00D+00
 Coeff-Com:  0.123D-06-0.311D-06-0.743D-06-0.437D-05 0.163D-05 0.357D-04
 Coeff-Com:  0.782D-04 0.109D-03-0.285D-03-0.385D-02-0.807D-02-0.724D-02
 Coeff-Com:  0.503D-01 0.271D+00 0.698D+00
 Coeff:      0.123D-06-0.311D-06-0.743D-06-0.437D-05 0.163D-05 0.357D-04
 Coeff:      0.782D-04 0.109D-03-0.285D-03-0.385D-02-0.807D-02-0.724D-02
 Coeff:      0.503D-01 0.271D+00 0.698D+00
 Gap=     0.307 Goal=   None    Shift=    0.000
 RMSDP=5.97D-09 MaxDP=3.98D-07 DE=-2.59D-11 OVMax= 9.38D-08

 SCF Done:  E(RBMK) =  -1027.76268533     A.U. after   15 cycles
            NFock= 15  Conv=0.60D-08     -V/T= 2.0058
 KE= 1.021867439608D+03 PE=-5.904115997516D+03 EE= 2.101264096860D+03
 Leave Link  502 at Thu Apr  6 12:01:20 2023, MaxMem=    33554432 cpu:       727.3
 (Enter /hits/basement/its/doserbd/software/gaussian/g09d1/g09/l601.exe)
 Copying SCF densities to generalized density rwf, IOpCl= 0 IROHF=0.

 **********************************************************************

            Population analysis using the SCF density.

 **********************************************************************

 Orbital symmetries:
       Occupied  (A) (A) (A) (A) (A) (A) (A) (A) (A) (A) (A) (A)
                 (A) (A) (A) (A) (A) (A) (A) (A) (A) (A) (A) (A)
                 (A) (A) (A) (A) (A) (A) (A) (A) (A) (A) (A) (A)
                 (A) (A) (A) (A) (A) (A) (A) (A) (A) (A) (A) (A)
                 (A) (A) (A) (A) (A) (A) (A) (A) (A) (A) (A) (A)
                 (A) (A) (A) (A) (A) (A) (A) (A) (A) (A) (A) (A)
                 (A) (A) (A) (A) (A) (A) (A) (A)
       Virtual   (A) (A) (A) (A) (A) (A) (A) (A) (A) (A) (A) (A)
                 (A) (A) (A) (A) (A) (A) (A) (A) (A) (A) (A) (A)
                 (A) (A) (A) (A) (A) (A) (A) (A) (A) (A) (A) (A)
                 (A) (A) (A) (A) (A) (A) (A) (A) (A) (A) (A) (A)
                 (A) (A) (A) (A) (A) (A) (A) (A) (A) (A) (A) (A)
                 (A) (A) (A) (A) (A) (A) (A) (A) (A) (A) (A) (A)
                 (A) (A) (A) (A) (A) (A) (A) (A) (A) (A) (A) (A)
                 (A) (A) (A) (A) (A) (A) (A) (A) (A) (A) (A) (A)
                 (A) (A) (A) (A) (A) (A) (A) (A) (A) (A) (A) (A)
                 (A) (A) (A) (A) (A) (A) (A) (A) (A) (A) (A) (A)
                 (A) (A) (A) (A) (A) (A) (A) (A) (A) (A) (A) (A)
                 (A) (A) (A) (A) (A) (A) (A) (A) (A) (A) (A) (A)
                 (A) (A) (A) (A) (A) (A) (A) (A) (A) (A) (A) (A)
                 (A) (A) (A) (A) (A) (A) (A) (A) (A) (A) (A) (A)
                 (A) (A) (A) (A) (A) (A) (A) (A) (A) (A) (A) (A)
                 (A) (A) (A) (A) (A) (A) (A) (A) (A) (A) (A) (A)
                 (A) (A) (A) (A) (A) (A) (A) (A) (A) (A) (A) (A)
                 (A) (A) (A) (A) (A) (A) (A) (A) (A) (A) (A) (A)
                 (A) (A) (A) (A) (A) (A) (A) (A) (A) (A) (A) (A)
                 (A) (A) (A) (A) (A) (A) (A) (A) (A)
 The electronic state is 1-A.
 Alpha  occ. eigenvalues --  -19.54073 -19.53280 -19.52683 -19.51368 -14.73505
 Alpha  occ. eigenvalues --  -14.72237 -14.70532 -14.70478 -10.62047 -10.61001
 Alpha  occ. eigenvalues --  -10.60528 -10.59860 -10.54172 -10.54053 -10.53730
 Alpha  occ. eigenvalues --  -10.53658 -10.51909 -10.49081 -10.48941 -10.47852
 Alpha  occ. eigenvalues --  -10.47817  -1.16216  -1.15337  -1.14235  -1.13247
 Alpha  occ. eigenvalues --   -1.05279  -1.02319  -1.01567  -1.01107  -0.89035
 Alpha  occ. eigenvalues --   -0.86512  -0.84095  -0.82843  -0.78895  -0.78358
 Alpha  occ. eigenvalues --   -0.74126  -0.71769  -0.67791  -0.66510  -0.65760
 Alpha  occ. eigenvalues --   -0.64841  -0.64060  -0.60314  -0.58485  -0.57305
 Alpha  occ. eigenvalues --   -0.54877  -0.54542  -0.53827  -0.52532  -0.52263
 Alpha  occ. eigenvalues --   -0.51972  -0.51853  -0.50860  -0.49398  -0.49054
 Alpha  occ. eigenvalues --   -0.48204  -0.47476  -0.47129  -0.45663  -0.45568
 Alpha  occ. eigenvalues --   -0.45276  -0.44628  -0.44484  -0.43749  -0.43049
 Alpha  occ. eigenvalues --   -0.42665  -0.42234  -0.40949  -0.40530  -0.40265
 Alpha  occ. eigenvalues --   -0.39675  -0.39155  -0.33036  -0.32601  -0.31586
 Alpha  occ. eigenvalues --   -0.30956  -0.29855  -0.29648  -0.29507  -0.28697
 Alpha virt. eigenvalues --    0.01977   0.02439   0.03209   0.03306   0.03930
 Alpha virt. eigenvalues --    0.04569   0.04901   0.04949   0.05164   0.05720
 Alpha virt. eigenvalues --    0.05794   0.06216   0.07451   0.07668   0.07875
 Alpha virt. eigenvalues --    0.08307   0.08436   0.08981   0.09290   0.10020
 Alpha virt. eigenvalues --    0.10642   0.10990   0.11331   0.11722   0.12119
 Alpha virt. eigenvalues --    0.12590   0.12978   0.13370   0.13515   0.13638
 Alpha virt. eigenvalues --    0.13993   0.14402   0.14905   0.15168   0.15654
 Alpha virt. eigenvalues --    0.15977   0.16032   0.16360   0.17169   0.17584
 Alpha virt. eigenvalues --    0.18401   0.18578   0.18619   0.18808   0.19301
 Alpha virt. eigenvalues --    0.19645   0.20311   0.20374   0.20614   0.20877
 Alpha virt. eigenvalues --    0.21460   0.21837   0.22016   0.22242   0.22452
 Alpha virt. eigenvalues --    0.22676   0.23020   0.23741   0.24431   0.24456
 Alpha virt. eigenvalues --    0.24685   0.24877   0.24948   0.25528   0.25771
 Alpha virt. eigenvalues --    0.26143   0.26425   0.26883   0.27255   0.27576
 Alpha virt. eigenvalues --    0.27991   0.28263   0.28382   0.28730   0.29323
 Alpha virt. eigenvalues --    0.30015   0.30164   0.30633   0.30888   0.31060
 Alpha virt. eigenvalues --    0.31181   0.32188   0.32378   0.32827   0.33221
 Alpha virt. eigenvalues --    0.33431   0.33657   0.33952   0.34268   0.35225
 Alpha virt. eigenvalues --    0.35463   0.35897   0.36112   0.36888   0.36961
 Alpha virt. eigenvalues --    0.37039   0.37545   0.38119   0.38577   0.39000
 Alpha virt. eigenvalues --    0.39283   0.40110   0.40369   0.40715   0.41601
 Alpha virt. eigenvalues --    0.41663   0.42217   0.42526   0.43291   0.43928
 Alpha virt. eigenvalues --    0.44053   0.44846   0.45421   0.46044   0.46771
 Alpha virt. eigenvalues --    0.47016   0.47472   0.47939   0.48739   0.49362
 Alpha virt. eigenvalues --    0.51034   0.51179   0.52107   0.52987   0.54128
 Alpha virt. eigenvalues --    0.55159   0.56311   0.57024   0.58043   0.58700
 Alpha virt. eigenvalues --    0.60025   0.70514   0.71485   0.72248   0.72417
 Alpha virt. eigenvalues --    0.73166   0.74231   0.74462   0.75256   0.76454
 Alpha virt. eigenvalues --    0.77099   0.77905   0.78928   0.79618   0.80660
 Alpha virt. eigenvalues --    0.81334   0.81651   0.81946   0.82923   0.83632
 Alpha virt. eigenvalues --    0.85037   0.85741   0.86256   0.87316   0.89206
 Alpha virt. eigenvalues --    0.89738   0.90670   0.91585   0.92762   0.93877
 Alpha virt. eigenvalues --    0.95503   0.97287   0.99334   1.00060   1.00204
 Alpha virt. eigenvalues --    1.00637   1.02369   1.03564   1.05022   1.05416
 Alpha virt. eigenvalues --    1.06633   1.08119   1.09755   1.10674   1.10862
 Alpha virt. eigenvalues --    1.11090   1.12869   1.13985   1.14308   1.15800
 Alpha virt. eigenvalues --    1.16304   1.17324   1.18074   1.19206   1.19727
 Alpha virt. eigenvalues --    1.21040   1.21672   1.22744   1.24220   1.24898
 Alpha virt. eigenvalues --    1.25160   1.25835   1.26690   1.28301   1.29788
 Alpha virt. eigenvalues --    1.30136   1.32437   1.34305   1.36359   1.37223
 Alpha virt. eigenvalues --    1.38095   1.38323   1.39917   1.40539   1.41426
 Alpha virt. eigenvalues --    1.43036   1.45419   1.46674   1.47264   1.48645
 Alpha virt. eigenvalues --    1.49939   1.51255   1.51572   1.53274   1.55176
 Alpha virt. eigenvalues --    1.56622   1.57361   1.59241   1.61218   1.61978
 Alpha virt. eigenvalues --    1.62669   1.66759   1.67516   1.69881   1.74005
 Alpha virt. eigenvalues --    1.74632   1.76213   1.81199   1.86832   1.89715
 Alpha virt. eigenvalues --    1.90960   1.97619   2.12543   2.14303   2.17360
 Alpha virt. eigenvalues --    2.20129   2.22159
          Condensed to atoms (all electrons):
               1          2          3          4          5          6
     1  C    6.612306   0.399404   0.421518   0.423089  -0.316513  -0.056008
     2  H    0.399404   0.524882  -0.026153  -0.026161  -0.081453   0.004991
     3  H    0.421518  -0.026153   0.468677  -0.021652  -0.071540  -0.003862
     4  H    0.423089  -0.026161  -0.021652   0.469508  -0.071493  -0.003855
     5  C   -0.316513  -0.081453  -0.071540  -0.071493   6.702526   0.446445
     6  O   -0.056008   0.004991  -0.003862  -0.003855   0.446445   8.502277
     7  N   -0.363282   0.005486   0.004822   0.004053  -0.583335  -0.245157
     8  H    0.013879   0.002930   0.000025   0.000033   0.007494   0.003404
     9  C   -0.598373   0.002176  -0.003200  -0.003934  -1.023843  -0.135358
    10  H   -0.001887  -0.000007   0.000035  -0.000012   0.012957   0.001353
    11  H    0.004758  -0.000008  -0.000012   0.000037   0.033672   0.002143
    12  C    0.241898   0.001931  -0.001141  -0.001874   0.428473   0.086673
    13  O    0.003870  -0.000157   0.000020   0.000019   0.007844  -0.001233
    14  N    0.007328   0.000169  -0.000006  -0.000009  -0.058235  -0.007605
    15  C   -0.006050   0.000244   0.000046   0.000019  -0.102192  -0.016783
    16  H    0.000163   0.000000   0.000000   0.000000   0.000736   0.000057
    17  H    0.000278   0.000000   0.000000   0.000000   0.003789   0.000026
    18  C   -0.000257   0.000018   0.000002   0.000003  -0.030767  -0.002676
    19  H    0.000002   0.000000   0.000000   0.000000   0.000053   0.000000
    20  H   -0.000001   0.000000   0.000000   0.000000  -0.000023   0.000000
    21  C   -0.000800  -0.000013   0.000001   0.000000  -0.014178   0.000526
    22  H    0.000000   0.000000   0.000000   0.000000  -0.000021   0.000000
    23  H   -0.000003   0.000000   0.000000   0.000000  -0.000031   0.000000
    24  C    0.002432   0.000172   0.000000   0.000000   0.007122  -0.000899
    25  H    0.000003   0.000000   0.000000   0.000000   0.000116   0.000001
    26  C    0.004580   0.000040  -0.000003   0.000006   0.004133  -0.000733
    27  O    0.000010   0.000000   0.000000   0.000000   0.000198   0.000000
    28  N    0.000009   0.000004   0.000000   0.000000  -0.002599  -0.000029
    29  H   -0.000021   0.000000   0.000000   0.000000  -0.000030   0.000002
    30  C   -0.000283  -0.000017   0.000001  -0.000001  -0.001194   0.000163
    31  H    0.000001   0.000000   0.000000   0.000000   0.000005   0.000000
    32  C   -0.000344   0.000004  -0.000001   0.000000  -0.000972  -0.000076
    33  H    0.000000   0.000000   0.000000   0.000000  -0.000002   0.000000
    34  H    0.000000   0.000000   0.000000   0.000000   0.000001   0.000000
    35  H    0.000031   0.000000   0.000000   0.000000   0.000127   0.000000
    36  C    0.000508   0.000008  -0.000001   0.000000   0.002222  -0.000051
    37  O   -0.000019  -0.000001   0.000000   0.000000  -0.000125   0.000000
    38  N   -0.000010   0.000000   0.000000   0.000000   0.000008   0.000000
    39  H    0.000000   0.000000   0.000000   0.000000   0.000000   0.000000
    40  C   -0.000011   0.000000   0.000000   0.000000   0.000013   0.000000
    41  H    0.000000   0.000000   0.000000   0.000000   0.000000   0.000000
    42  H    0.000000   0.000000   0.000000   0.000000   0.000000   0.000000
    43  H    0.000000   0.000000   0.000000   0.000000   0.000000   0.000000
               7          8          9         10         11         12
     1  C   -0.363282   0.013879  -0.598373  -0.001887   0.004758   0.241898
     2  H    0.005486   0.002930   0.002176  -0.000007  -0.000008   0.001931
     3  H    0.004822   0.000025  -0.003200   0.000035  -0.000012  -0.001141
     4  H    0.004053   0.000033  -0.003934  -0.000012   0.000037  -0.001874
     5  C   -0.583335   0.007494  -1.023843   0.012957   0.033672   0.428473
     6  O   -0.245157   0.003404  -0.135358   0.001353   0.002143   0.086673
     7  N    8.108273   0.254265   0.608141  -0.043747  -0.050268  -0.140453
     8  H    0.254265   0.290083  -0.145917   0.002036   0.002192   0.081349
     9  C    0.608141  -0.145917  17.310385   0.392875   0.439050  -7.888164
    10  H   -0.043747   0.002036   0.392875   0.480024  -0.038281  -0.085587
    11  H   -0.050268   0.002192   0.439050  -0.038281   0.483171  -0.139043
    12  C   -0.140453   0.081349  -7.888164  -0.085587  -0.139043  13.986706
    13  O   -0.004092   0.022172   0.299817  -0.000420   0.003280   0.033064
    14  N   -0.036681   0.016769  -1.497078   0.022504   0.021531  -0.290616
    15  C    0.048573   0.002836  -0.465320   0.005121  -0.024553  -0.184682
    16  H   -0.000338   0.000000   0.008975   0.002750  -0.001675  -0.053245
    17  H   -0.000050  -0.000001   0.051993  -0.001064   0.003076  -0.052714
    18  C   -0.005674   0.000335  -0.073323  -0.002180   0.007558  -0.125215
    19  H   -0.000019   0.000000  -0.000068   0.000003  -0.000001   0.005513
    20  H   -0.000012   0.000000  -0.001111  -0.000002  -0.000002  -0.008386
    21  C   -0.001252  -0.000566  -0.158035   0.001808  -0.010227   0.264749
    22  H   -0.000012   0.000000  -0.000936   0.000000   0.000000  -0.013462
    23  H   -0.000004   0.000000  -0.006994   0.000000   0.000003   0.029231
    24  C   -0.024742   0.006376  -0.029748   0.008790   0.005932  -0.799574
    25  H    0.000364   0.000000  -0.008388  -0.000016   0.000023   0.035541
    26  C   -0.012113   0.002216  -0.157564  -0.006025   0.009516  -0.847708
    27  O    0.000195   0.000002  -0.020045   0.000077  -0.000019   0.027688
    28  N   -0.000069   0.000294  -0.139895  -0.000701   0.000324   0.276028
    29  H   -0.000013  -0.000059   0.022797  -0.000011  -0.000006  -0.014448
    30  C    0.000790  -0.000722   0.147801   0.000020  -0.000068  -0.109918
    31  H   -0.000005   0.000000   0.000661   0.000000   0.000000  -0.005942
    32  C    0.001324   0.000181  -0.057204  -0.000274   0.000166   0.050849
    33  H   -0.000003   0.000000   0.000143   0.000000   0.000000   0.000493
    34  H    0.000006   0.000000  -0.000393   0.000000   0.000000   0.003826
    35  H   -0.000043   0.000000   0.002548  -0.000002   0.000000  -0.011893
    36  C   -0.001557   0.000098  -0.018401  -0.000305   0.000037   0.018686
    37  O   -0.000125   0.000000  -0.002166  -0.000003   0.000001   0.006343
    38  N    0.000022   0.000000  -0.000690   0.000000   0.000000   0.004453
    39  H    0.000000   0.000000  -0.000006   0.000000   0.000000  -0.000136
    40  C    0.000007  -0.000002  -0.000556  -0.000001   0.000000   0.001231
    41  H    0.000000   0.000000   0.000001   0.000000   0.000000  -0.000002
    42  H    0.000000   0.000000  -0.000001   0.000000   0.000000  -0.000053
    43  H    0.000000   0.000000  -0.000003   0.000000   0.000000   0.000039
              13         14         15         16         17         18
     1  C    0.003870   0.007328  -0.006050   0.000163   0.000278  -0.000257
     2  H   -0.000157   0.000169   0.000244   0.000000   0.000000   0.000018
     3  H    0.000020  -0.000006   0.000046   0.000000   0.000000   0.000002
     4  H    0.000019  -0.000009   0.000019   0.000000   0.000000   0.000003
     5  C    0.007844  -0.058235  -0.102192   0.000736   0.003789  -0.030767
     6  O   -0.001233  -0.007605  -0.016783   0.000057   0.000026  -0.002676
     7  N   -0.004092  -0.036681   0.048573  -0.000338  -0.000050  -0.005674
     8  H    0.022172   0.016769   0.002836   0.000000  -0.000001   0.000335
     9  C    0.299817  -1.497078  -0.465320   0.008975   0.051993  -0.073323
    10  H   -0.000420   0.022504   0.005121   0.002750  -0.001064  -0.002180
[...]
  Cent   Atom   N1       Length/X         N2         Alpha/Y        N3         Beta/Z          J
 -----------------------------------------------------------------------------------------------
      1  C 
      2  H        1  -0.000001(     1)
      3  H        1   0.000001(     2)      2   0.000001(    43)
      4  H        1   0.000000(     3)      2   0.000002(    44)      3   0.000002(    84)     0
      5  C        1   0.000001(     4)      2  -0.000127(    45)      3   0.000168(    85)     0
      6  O        5   0.000002(     5)      1   0.000001(    46)      2  -0.000117(    86)     0
      7  N        5   0.000003(     6)      1  -0.000121(    47)      6  -0.000116(    87)     0
      8  H        7  -0.000005(     7)      5  -0.000002(    48)      1  -0.000243(    88)     0
      9  C        7  -0.000004(     8)      5   0.000116(    49)      8  -0.000239(    89)     0
     10  H        9   0.000000(     9)      7   0.000000(    50)      5  -0.000139(    90)     0
     11  H        9   0.000000(    10)      7   0.000002(    51)     10  -0.000002(    91)     0
     12  C        9  -0.000002(    11)      7  -0.000122(    52)     10  -0.000135(    92)     0
     13  O       12   0.000000(    12)      9  -0.000005(    53)      7  -0.000208(    93)     0
     14  N       12  -0.000004(    13)      9   0.000099(    54)     13  -0.000206(    94)     0
     15  C       14  -0.000008(    14)     12   0.000049(    55)      9  -0.000173(    95)     0
     16  H       15  -0.000001(    15)     14   0.000003(    56)     12   0.000047(    96)     0
     17  H       15   0.000001(    16)     14  -0.000001(    57)     16  -0.000003(    97)     0
     18  C       15   0.000003(    17)     14  -0.000032(    58)     16   0.000049(    98)     0
     19  H       18   0.000001(    18)     15   0.000001(    59)     14   0.000015(    99)     0
     20  H       18   0.000000(    19)     15   0.000002(    60)     19  -0.000003(   100)     0
     21  C       18   0.000009(    20)     15  -0.000005(    61)     19   0.000012(   101)     0
     22  H       21   0.000000(    21)     18   0.000005(    62)     15  -0.000001(   102)     0
     23  H       21   0.000002(    22)     18   0.000005(    63)     22   0.000000(   103)     0
     24  C       14  -0.000012(    23)     12  -0.000047(    64)     15  -0.000164(   104)     0
     25  H       24   0.000003(    24)     14   0.000000(    65)     12  -0.000133(   105)     0
     26  C       24   0.000006(    25)     14  -0.000089(    66)     25  -0.000134(   106)     0
     27  O       26  -0.000005(    26)     24   0.000003(    67)     14  -0.000092(   107)     0
     28  N       26   0.000005(    27)     24   0.000080(    68)     27  -0.000088(   108)     0
     29  H       28   0.000003(    28)     26   0.000008(    69)     24   0.000038(   109)     0
     30  C       28   0.000011(    29)     26  -0.000056(    70)     29   0.000038(   110)     0
     31  H       30   0.000002(    30)     28  -0.000004(    71)     26  -0.000055(   111)     0
     32  C       30   0.000005(    31)     28   0.000007(    72)     31  -0.000017(   112)     0
     33  H       32   0.000001(    32)     30   0.000001(    73)     28  -0.000001(   113)     0
     34  H       32   0.000001(    33)     30  -0.000003(    74)     33   0.000001(   114)     0
     35  H       32   0.000000(    34)     30   0.000003(    75)     33  -0.000002(   115)     0
     36  C       30  -0.000007(    35)     28   0.000039(    76)     31  -0.000043(   116)     0
     37  O       36  -0.000002(    36)     30   0.000001(    77)     28   0.000019(   117)     0
     38  N       36  -0.000004(    37)     30  -0.000004(    78)     37   0.000021(   118)     0
     39  H       38   0.000001(    38)     36  -0.000002(    79)     30  -0.000019(   119)     0
     40  C       38   0.000000(    39)     36  -0.000010(    80)     39  -0.000020(   120)     0
     41  H       40   0.000000(    40)     38  -0.000004(    81)     36   0.000000(   121)     0
     42  H       40   0.000002(    41)     38  -0.000003(    82)     41   0.000002(   122)     0
     43  H       40  -0.000002(    42)     38   0.000008(    83)     41  -0.000003(   123)     0
 -----------------------------------------------------------------------------------------------
 Internal  Forces:  Max     0.000243351 RMS     0.000064572
 Leave Link  716 at Thu Apr  6 12:01:32 2023, MaxMem=    33554432 cpu:         0.6
 (Enter /hits/basement/its/doserbd/software/gaussian/g09d1/g09/l103.exe)

 GradGradGradGradGradGradGradGradGradGradGradGradGradGradGradGradGradGrad
 Berny optimization.
 Search for a local minimum.
 Step number   1 out of a maximum of    2
 All quantities printed in internal units (Hartrees-Bohrs-Radians)
 Second derivative matrix not updated -- first step.
 ITU=  0
     Eigenvalues ---    0.01218   0.01603   0.01853   0.01973   0.02202
     Eigenvalues ---    0.02431   0.03021   0.03112   0.03247   0.03338
     Eigenvalues ---    0.04497   0.04596   0.04964   0.05145   0.07081
     Eigenvalues ---    0.07208   0.07324   0.07393   0.07691   0.07907
     Eigenvalues ---    0.08262   0.09757   0.10496   0.11285   0.11895
     Eigenvalues ---    0.12356   0.13582   0.13606   0.14468   0.14811
     Eigenvalues ---    0.15553   0.15947   0.16221   0.16575   0.17181
     Eigenvalues ---    0.17649   0.17781   0.18070   0.18354   0.19758
     Eigenvalues ---    0.19880   0.19883   0.19887   0.23496   0.23821
     Eigenvalues ---    0.23896   0.24873   0.25000   0.25001   0.25003
     Eigenvalues ---    0.25020   0.26257   0.26710   0.26883   0.27447
     Eigenvalues ---    0.27813   0.28515   0.29100   0.29425   0.29752
     Eigenvalues ---    0.30412   0.31047   0.31627   0.32877   0.32949
     Eigenvalues ---    0.33514   0.33520   0.33612   0.33748   0.33848
     Eigenvalues ---    0.33897   0.33966   0.33993   0.34005   0.34011
     Eigenvalues ---    0.34019   0.34055   0.34067   0.34072   0.34095
     Eigenvalues ---    0.34152   0.34175   0.34378   0.34425   0.34557
     Eigenvalues ---    0.34618   0.34931   0.35223   0.35964   0.36552
     Eigenvalues ---    0.36831   0.37431   0.37667   0.38460   0.38568
     Eigenvalues ---    0.38612   0.39207   0.40006   0.41462   0.44317
     Eigenvalues ---    0.45536   0.46216   0.46911   0.53072   0.53109
     Eigenvalues ---    0.53132   0.53236   0.53494   0.54702   0.54826
     Eigenvalues ---    0.58935   0.73000   0.74956   0.74999   0.75000
     Eigenvalues ---    0.75017   0.81582   0.83068   0.83887   0.85284
     Eigenvalues ---    1.80081   4.16959  13.32884
 Angle between quadratic step and forces=  54.72 degrees.
 Linear search not attempted -- first point.
 Variable       Old X    -DE/DX   Delta X   Delta X   Delta X     New X
                                 (Linear)    (Quad)   (Total)
    R2        2.07035   0.00000   0.00000   0.00000   0.00000   2.07035
    R3        2.07237   0.00000   0.00000   0.00000   0.00000   2.07238
    R4        2.07298   0.00000   0.00000   0.00000   0.00000   2.07298
    R5        2.87150   0.00000   0.00000   0.00000   0.00000   2.87150
    R6        2.35885   0.00000   0.00000   0.00000   0.00000   2.35885
    R7        2.56734   0.00000   0.00000   0.00001   0.00001   2.56734
    R8        1.91358  -0.00001   0.00000  -0.00001  -0.00001   1.91357
    R9        2.73484   0.00000   0.00000  -0.00001  -0.00001   2.73483
   R10        2.08158   0.00000   0.00000   0.00000   0.00000   2.08158
   R11        2.08147   0.00000   0.00000   0.00000   0.00000   2.08147
   R12        2.88461   0.00000   0.00000  -0.00001  -0.00001   2.88461
   R13        2.37074   0.00000   0.00000   0.00000   0.00000   2.37074
   R14        2.55287   0.00000   0.00000  -0.00001  -0.00001   2.55286
   R15        2.79814  -0.00001   0.00000   0.00000   0.00000   2.79815
   R16        2.07321   0.00000   0.00000   0.00000   0.00000   2.07321
   R17        2.07990   0.00000   0.00000   0.00000   0.00000   2.07990
   R18        2.92439   0.00000   0.00000   0.00007   0.00007   2.92447
   R19        2.07209   0.00000   0.00000   0.00000   0.00000   2.07209
   R20        2.07075   0.00000   0.00000   0.00000   0.00000   2.07075
   R21        2.93005   0.00001   0.00000   0.00005   0.00005   2.93010
   R22        2.06619   0.00000   0.00000   0.00000   0.00000   2.06619
   R23        2.07588   0.00000   0.00000   0.00000   0.00000   2.07588
   R24        2.80061  -0.00001   0.00000  -0.00007  -0.00007   2.80054
   R25        2.07341   0.00000   0.00000   0.00001   0.00001   2.07342
   R26        2.92548   0.00001   0.00000   0.00002   0.00002   2.92550
   R27        2.36302   0.00000   0.00000  -0.00001  -0.00001   2.36302
   R28        2.55398   0.00001   0.00000   0.00001   0.00001   2.55399
   R29        1.92777   0.00000   0.00000   0.00001   0.00001   1.92778
   R30        2.75201   0.00001   0.00000   0.00003   0.00003   2.75204
   R31        2.07757   0.00000   0.00000   0.00000   0.00000   2.07758
   R32        2.93364   0.00001   0.00000   0.00002   0.00002   2.93366
   R33        2.07504   0.00000   0.00000   0.00000   0.00000   2.07504
   R34        2.07170   0.00000   0.00000   0.00000   0.00000   2.07170
   R35        2.07387   0.00000   0.00000   0.00000   0.00000   2.07387
   R36        2.89794  -0.00001   0.00000  -0.00002  -0.00002   2.89792
   R37        2.35186   0.00000   0.00000   0.00000   0.00000   2.35185
   R38        2.56495   0.00000   0.00000  -0.00001  -0.00001   2.56494
   R39        1.90589   0.00000   0.00000   0.00000   0.00000   1.90589
   R40        2.76101   0.00000   0.00000   0.00000   0.00000   2.76102
   R41        2.06696   0.00000   0.00000   0.00000   0.00000   2.06696
   R42        2.07216   0.00000   0.00000   0.00001   0.00001   2.07217
   R43        2.07311   0.00000   0.00000   0.00000   0.00000   2.07311
    A3        1.90763   0.00000   0.00000   0.00066   0.00066   1.90829
    A4        1.90657   0.00000   0.00000  -0.00058  -0.00058   1.90600
    A5        1.96959  -0.00013   0.00000  -0.00043  -0.00043   1.96916
    A6        2.12867   0.00000   0.00000   0.00016   0.00016   2.12883
    A7        2.03531  -0.00012   0.00000  -0.00032  -0.00032   2.03500
    A8        2.14615   0.00000   0.00000  -0.00018  -0.00018   2.14597
    A9        2.11133   0.00012   0.00000   0.00035   0.00035   2.11168
   A10        1.93001   0.00000   0.00000   0.00043   0.00043   1.93043
   A11        1.92748   0.00000   0.00000  -0.00025  -0.00025   1.92724
   A12        1.89554  -0.00012   0.00000  -0.00041  -0.00041   1.89513
   A13        2.10890  -0.00001   0.00000  -0.00014  -0.00014   2.10876
   A14        2.04110   0.00010   0.00000   0.00026   0.00026   2.04137
   A15        2.19163   0.00005   0.00000   0.00019   0.00019   2.19181
   A16        1.93591   0.00000   0.00000   0.00011   0.00011   1.93602
   A17        1.91744   0.00000   0.00000  -0.00010  -0.00010   1.91734
   A18        1.80486  -0.00003   0.00000   0.00000   0.00000   1.80486
   A19        1.92765   0.00000   0.00000   0.00001   0.00001   1.92766
   A20        1.94985   0.00000   0.00000  -0.00001  -0.00001   1.94984
   A21        1.81016   0.00000   0.00000   0.00004   0.00004   1.81020
   A22        1.95552   0.00001   0.00000   0.00000   0.00000   1.95552
   A23        1.93428   0.00000   0.00000   0.00013   0.00013   1.93441
   A24        2.11338  -0.00005   0.00000  -0.00016  -0.00016   2.11323
   A25        1.89426   0.00000   0.00000   0.00004   0.00004   1.89429
   A26        1.93440  -0.00009   0.00000  -0.00026  -0.00026   1.93413
   A27        2.12006   0.00000   0.00000  -0.00010  -0.00010   2.11996
   A28        2.02245   0.00008   0.00000   0.00021   0.00021   2.02266
   A29        2.11893   0.00001   0.00000   0.00011   0.00011   2.11904
   A30        2.10948  -0.00006   0.00000  -0.00018  -0.00018   2.10930
   A31        1.88270   0.00000   0.00000   0.00001   0.00001   1.88271
   A32        1.94656   0.00001   0.00000  -0.00006  -0.00006   1.94650
   A33        1.93865   0.00000   0.00000   0.00001   0.00001   1.93867
   A34        1.89789   0.00000   0.00000  -0.00003  -0.00003   1.89786
   A35        1.91580   0.00000   0.00000   0.00002   0.00002   1.91582
   A36        1.88055   0.00004   0.00000   0.00014   0.00014   1.88069
   A37        2.12270   0.00000   0.00000   0.00000   0.00000   2.12270
   A38        2.02358   0.00000   0.00000  -0.00002  -0.00002   2.02355
   A39        2.09049   0.00000   0.00000   0.00001   0.00001   2.09050
   A40        2.11440  -0.00001   0.00000  -0.00003  -0.00003   2.11438
   A41        1.90050   0.00000   0.00000  -0.00002  -0.00002   1.90047
   A42        1.92518   0.00000   0.00000  -0.00003  -0.00003   1.92515
   A43        1.93005   0.00001   0.00000   0.00005   0.00005   1.93010
    D4       -2.05250   0.00000   0.00000   0.00033   0.00033  -2.05218
    D5        2.11567   0.00017   0.00000   0.00160   0.00160   2.11726
    D6       -3.11786  -0.00012   0.00000  -0.00539  -0.00539  -3.12325
    D7       -3.13941  -0.00012   0.00000   0.00108   0.00108  -3.13833
    D8       -0.00254  -0.00024   0.00000  -0.00282  -0.00282  -0.00536
    D9        3.14033  -0.00024   0.00000  -0.00076  -0.00076   3.13957
   D10        1.04286  -0.00014   0.00000  -0.00175  -0.00175   1.04111
   D11       -2.04971   0.00000   0.00000  -0.00020  -0.00020  -2.04990
   D12        2.11537  -0.00014   0.00000   0.00000   0.00000   2.11537
   D13       -0.00546  -0.00021   0.00000  -0.00851  -0.00851  -0.01397
   D14        3.14102  -0.00021   0.00000   0.00023   0.00023   3.14126
   D15       -0.06105  -0.00017   0.00000  -0.00201  -0.00201  -0.06306
   D16        1.05112   0.00005   0.00000   0.00151   0.00151   1.05263
   D17       -2.09652   0.00000   0.00000  -0.00001  -0.00001  -2.09653
   D18        2.10953   0.00005   0.00000   0.00023   0.00023   2.10976
   D19       -1.56268   0.00002   0.00000  -0.00072  -0.00072  -1.56340
   D20       -2.11822   0.00000   0.00000  -0.00002  -0.00002  -2.11824
   D21        2.03863   0.00001   0.00000  -0.00004  -0.00004   2.03859
   D22       -2.75065   0.00000   0.00000  -0.00016  -0.00016  -2.75081
   D23       -2.14262   0.00000   0.00000  -0.00013  -0.00013  -2.14275
   D24       -2.98907  -0.00016   0.00000   0.00008   0.00008  -2.98899
   D25        0.62120  -0.00013   0.00000  -0.00205  -0.00205   0.61914
   D26       -2.08943  -0.00013   0.00000  -0.00024  -0.00024  -2.08967
   D27       -1.84653  -0.00009   0.00000  -0.00583  -0.00583  -1.85236
   D28       -3.13335  -0.00009   0.00000  -0.00083  -0.00083  -3.13418
   D29       -0.04735   0.00004   0.00000   0.00068   0.00068  -0.04666
   D30       -3.09113   0.00004   0.00000   0.00029   0.00029  -3.09084
   D31       -0.70368  -0.00006   0.00000  -0.00100  -0.00100  -0.70468
   D32        2.08449  -0.00002   0.00000  -0.00013  -0.00013   2.08436
   D33       -3.10973   0.00000   0.00000   0.00000   0.00000  -3.10973
   D34        2.08818   0.00000   0.00000  -0.00001  -0.00001   2.08817
   D35       -2.10288   0.00000   0.00000  -0.00003  -0.00003  -2.10291
   D36       -2.07970  -0.00004   0.00000  -0.00018  -0.00018  -2.07988
   D37       -0.41189   0.00002   0.00000   0.00063   0.00063  -0.41126
   D38       -3.10608   0.00002   0.00000   0.00078   0.00078  -3.10530
   D39       -0.08234  -0.00002   0.00000  -0.00053  -0.00053  -0.08287
   D40       -3.11738  -0.00002   0.00000  -0.00016  -0.00016  -3.11754
   D41       -3.10246   0.00000   0.00000   0.00010   0.00010  -3.10236
   D42        2.09771   0.00000   0.00000  -0.00003  -0.00003   2.09768
   D43       -2.10061   0.00000   0.00000  -0.00003  -0.00003  -2.10064
         Item               Value     Threshold  Converged?
 Maximum Force            0.000243     0.000450     YES
 RMS     Force            0.000065     0.000300     YES
 Maximum Displacement     0.008509     0.001800     NO 
 RMS     Displacement     0.001168     0.001200     YES
 Predicted change in Energy=-2.679624D-06
 GradGradGradGradGradGradGradGradGradGradGradGradGradGradGradGradGradGrad

 Leave Link  103 at Thu Apr  6 12:01:32 2023, MaxMem=    33554432 cpu:         0.4
 (Enter /hits/basement/its/doserbd/software/gaussian/g09d1/g09/l9999.exe)
 1\1\GINC-HASWELL-171\Force\RBMK\6-31+G\C13H22N4O4\SUCERQDL\06-Apr-2023
 \1\\#P bmk/6-31+g force\\Gaussian input prepared by ASE\\0,1\C\H,1,R2\
 H,1,R3,2,A3\H,1,R4,2,A4,3,D4,0\C,1,R5,2,A5,3,D5,0\O,5,R6,1,A6,2,D6,0\N
 ,5,R7,1,A7,6,D7,0\H,7,R8,5,A8,1,D8,0\C,7,R9,5,A9,8,D9,0\H,9,R10,7,A10,
 5,D10,0\H,9,R11,7,A11,10,D11,0\C,9,R12,7,A12,10,D12,0\O,12,R13,9,A13,7
 ,D13,0\N,12,R14,9,A14,13,D14,0\C,14,R15,12,A15,9,D15,0\H,15,R16,14,A16
 ,12,D16,0\H,15,R17,14,A17,16,D17,0\C,15,R18,14,A18,16,D18,0\H,18,R19,1
 5,A19,14,D19,0\H,18,R20,15,A20,19,D20,0\C,18,R21,15,A21,19,D21,0\H,21,
 R22,18,A22,15,D22,0\H,21,R23,18,A23,22,D23,0\C,14,R24,12,A24,15,D24,0\
 H,24,R25,14,A25,12,D25,0\C,24,R26,14,A26,25,D26,0\O,26,R27,24,A27,14,D
 27,0\N,26,R28,24,A28,27,D28,0\H,28,R29,26,A29,24,D29,0\C,28,R30,26,A30
 ,29,D30,0\H,30,R31,28,A31,26,D31,0\C,30,R32,28,A32,31,D32,0\H,32,R33,3
 0,A33,28,D33,0\H,32,R34,30,A34,33,D34,0\H,32,R35,30,A35,33,D35,0\C,30,
 R36,28,A36,31,D36,0\O,36,R37,30,A37,28,D37,0\N,36,R38,30,A38,37,D38,0\
 H,38,R39,36,A39,30,D39,0\C,38,R40,36,A40,39,D40,0\H,40,R41,38,A41,36,D
 41,0\H,40,R42,38,A42,41,D42,0\H,40,R43,38,A43,41,D43,0\\R2=1.09558296\
 R3=1.09665336\R4=1.09697268\R5=1.51952985\R6=1.24825009\R7=1.35857718\
 R8=1.01262362\R9=1.44721681\R10=1.10152432\R11=1.1014685\R12=1.5264719
 9\R13=1.25453959\R14=1.35092131\R15=1.48071353\R16=1.09709705\R17=1.10
 063401\R18=1.54752177\R19=1.09650229\R20=1.09579232\R21=1.5505138\R22=
 1.09338031\R23=1.09850615\R24=1.48201921\R25=1.09720366\R26=1.54809804
 \R27=1.25045791\R28=1.35150692\R29=1.02013158\R30=1.45630294\R31=1.099
 40465\R32=1.55241622\R33=1.09806412\R34=1.0962975\R35=1.09744552\R36=1
 .5335231\R37=1.24454922\R38=1.35731308\R39=1.00855349\R40=1.46106603\R
 41=1.09379066\R42=1.096542\R43=1.0970428\A3=109.29903369\A4=109.238667
 64\A5=112.8491637\A6=121.96400333\A7=116.61482331\A8=122.96524448\A9=1
 20.97043965\A10=110.58122435\A11=110.43669896\A12=108.60666137\A13=120
 .83131468\A14=116.94643966\A15=125.57106709\A16=110.9192259\A17=109.86
 111774\A18=103.41072555\A19=110.44611695\A20=111.71794466\A21=103.7144
 8838\A22=112.0432714\A23=110.82628558\A24=121.08784325\A25=108.5328704
 5\A26=110.83283801\A27=121.470215\A28=115.8777095\A29=121.40568705\A30
 =120.86430536\A31=107.87061997\A32=111.52986313\A33=111.07674254\A34=1
 08.7410436\A35=109.76729082\A36=107.7476669\A37=121.62160083\A38=115.9
 4230917\A39=119.77651885\A40=121.14628898\A41=108.89039657\A42=110.304
 84501\A43=110.58397281\D4=-117.59974936\D5=121.21887763\D6=-178.640040
 85\D7=-179.87502822\D8=-0.14553947\D9=179.92774883\D10=59.75137736\D11
 =-117.43961017\D12=121.20154934\D13=-0.31294064\D14=179.96740034\D15=-
 3.49765611\D16=60.2249697\D17=-120.1219205\D18=120.86722417\D19=-89.53
 501571\D20=-121.36519659\D21=116.80502149\D22=-157.60085116\D23=-122.7
 6328317\D24=-171.26103749\D25=35.5918571\D26=-119.71566296\D27=-105.79
 814012\D28=-179.52788211\D29=-2.71274096\D30=-177.10860603\D31=-40.317
 63192\D32=119.43242543\D33=-178.17464215\D34=119.64399888\D35=-120.486
 15788\D36=-119.15799048\D37=-23.5997277\D38=-177.96525305\D39=-4.71788
 347\D40=-178.6126768\D41=-177.75788713\D42=120.18988956\D43=-120.35611
 683\\Version=ES64L-G09RevD.01\State=1-A\HF=-1027.7626853\RMSD=5.966e-0
 9\RMSF=2.382e-06\Dipole=-0.0166176,-1.2838845,1.2146996\Quadrupole=8.1
 797287,-5.0944342,-3.0852944,-6.2641671,13.7983612,0.0122009\PG=C01 [X
 (C13H22N4O4)]\\@


 I DON'T EXACTLY UNDERSTAND WHAT YOU ARE SAYING,
 BUT YOU ARE ABSOLUTELY RIGHT.
     M.S.GORDON, IN A NDSU FACULTY MEETING
 Job cpu time:       0 days  0 hours 14 minutes  1.6 seconds.
 File lengths (MBytes):  RWF=    112 Int=      0 D2E=      0 Chk=      7 Scr=      1
 Normal termination of Gaussian 09 at Thu Apr  6 12:01:32 2023.
