 Entering Gaussian System, Link 0=g09
 Input=test.com
 Output=test.log
 Initial command:
 /hits/basement/its/doserbd/software/gaussian/g09d1/g09/l1.exe "/hits/basement/mbm/sucerquia/gaussian_scratch/Gau-30763.inp" -scrdir="/hits/basement/mbm/sucerquia/gaussian_scratch/"
 Entering Link 1 = /hits/basement/its/doserbd/software/gaussian/g09d1/g09/l1.exe PID=     30764.
  
 Copyright (c) 1988,1990,1992,1993,1995,1998,2003,2009,2013,
            Gaussian, Inc.  All Rights Reserved.
  
 This is part of the Gaussian(R) 09 program.  It is based on
 the Gaussian(R) 03 system (copyright 2003, Gaussian, Inc.),
 the Gaussian(R) 98 system (copyright 1998, Gaussian, Inc.),
 the Gaussian(R) 94 system (copyright 1995, Gaussian, Inc.),
 the Gaussian 92(TM) system (copyright 1992, Gaussian, Inc.),
 the Gaussian 90(TM) system (copyright 1990, Gaussian, Inc.),
 the Gaussian 88(TM) system (copyright 1988, Gaussian, Inc.),
 the Gaussian 86(TM) system (copyright 1986, Carnegie Mellon
 University), and the Gaussian 82(TM) system (copyright 1983,
 Carnegie Mellon University). Gaussian is a federally registered
 trademark of Gaussian, Inc.
  
 This software contains proprietary and confidential information,
 including trade secrets, belonging to Gaussian, Inc.
  
 This software is provided under written license and may be
 used, copied, transmitted, or stored only in accord with that
 written license.
  
 The following legend is applicable only to US Government
 contracts under FAR:
  
                    RESTRICTED RIGHTS LEGEND
  
 Use, reproduction and disclosure by the US Government is
 subject to restrictions as set forth in subparagraphs (a)
 and (c) of the Commercial Computer Software - Restricted
 Rights clause in FAR 52.227-19.
  
 Gaussian, Inc.
 340 Quinnipiac St., Bldg. 40, Wallingford CT 06492
  
  
 ---------------------------------------------------------------
 Warning -- This program may not be used in any manner that
 competes with the business of Gaussian, Inc. or will provide
 assistance to any competitor of Gaussian, Inc.  The licensee
 of this program is prohibited from giving any competitor of
 Gaussian, Inc. access to this program.  By using this program,
 the user acknowledges that Gaussian, Inc. is engaged in the
 business of creating and licensing software in the field of
 computational chemistry and represents and warrants to the
 licensee that it is not a competitor of Gaussian, Inc. and that
 it will not use this program in any manner prohibited above.
 ---------------------------------------------------------------
  

 Cite this work as:
 Gaussian 09, Revision D.01,
 M. J. Frisch, G. W. Trucks, H. B. Schlegel, G. E. Scuseria, 
 M. A. Robb, J. R. Cheeseman, G. Scalmani, V. Barone, B. Mennucci, 
 G. A. Petersson, H. Nakatsuji, M. Caricato, X. Li, H. P. Hratchian, 
 A. F. Izmaylov, J. Bloino, G. Zheng, J. L. Sonnenberg, M. Hada, 
 M. Ehara, K. Toyota, R. Fukuda, J. Hasegawa, M. Ishida, T. Nakajima, 
 Y. Honda, O. Kitao, H. Nakai, T. Vreven, J. A. Montgomery, Jr., 
 J. E. Peralta, F. Ogliaro, M. Bearpark, J. J. Heyd, E. Brothers, 
 K. N. Kudin, V. N. Staroverov, T. Keith, R. Kobayashi, J. Normand, 
 K. Raghavachari, A. Rendell, J. C. Burant, S. S. Iyengar, J. Tomasi, 
 M. Cossi, N. Rega, J. M. Millam, M. Klene, J. E. Knox, J. B. Cross, 
 V. Bakken, C. Adamo, J. Jaramillo, R. Gomperts, R. E. Stratmann, 
 O. Yazyev, A. J. Austin, R. Cammi, C. Pomelli, J. W. Ochterski, 
 R. L. Martin, K. Morokuma, V. G. Zakrzewski, G. A. Voth, 
 P. Salvador, J. J. Dannenberg, S. Dapprich, A. D. Daniels, 
 O. Farkas, J. B. Foresman, J. V. Ortiz, J. Cioslowski, 
 and D. J. Fox, Gaussian, Inc., Wallingford CT, 2013.
 
 ******************************************
 Gaussian 09:  ES64L-G09RevD.01 24-Apr-2013
                17-Feb-2023 
 ******************************************
 %NProcShared=8
 Will use up to    8 processors via shared memory.
 -------------------
 #P bmk/6-31+g force
 -------------------
 1/10=7,30=1,38=1/1,3;
 2/12=2,17=6,18=5,40=1/2;
 3/5=1,6=6,7=10,11=2,16=1,25=1,30=1,71=1,74=-34/1,2,3;
 4//1;
 5/5=2,38=5/2;
 6/7=2,8=2,9=2,10=2,28=1/1;
 7/29=1/1,2,3,16;
 1/10=7,30=1/3;
 99//99;
 Leave Link    1 at Fri Feb 17 11:43:25 2023, MaxMem=           0 cpu:         0.3
 (Enter /hits/basement/its/doserbd/software/gaussian/g09d1/g09/l101.exe)
 ------------------------------
 Gaussian input prepared by ASE
 ------------------------------
 Symbolic Z-matrix:
 Charge =  0 Multiplicity = 1
 C
 O                    1    R2
 C                    1    R3       2    A3
 H                    3    R4       1    A4       2    D4       0
 H                    3    R5       1    A5       4    D5       0
 H                    3    R6       1    A6       4    D6       0
 N                    1    R7       2    A7       3    D7       0
 C                    7    R8       1    A8       2    D8       0
 C                    8    R9       7    A9       1    D9       0
 O                    9    R10      8    A10      7    D10      0
 H                    7    R11      1    A11      8    D11      0
 H                    8    R12      7    A12      9    D12      0
 H                    8    R13      7    A13      9    D13      0
 N                    9    R14      8    A14      10   D14      0
 C                    14   R15      9    A15      8    D15      0
 C                    15   R16      14   A16      9    D16      0
 O                    16   R17      15   A17      14   D17      0
 H                    14   R18      9    A18      15   D18      0
 H                    15   R19      14   A19      16   D19      0
 H                    15   R20      14   A20      16   D20      0
 N                    16   R21      15   A21      17   D21      0
 C                    21   R22      16   A22      15   D22      0
 C                    22   R23      21   A23      16   D23      0
 O                    23   R24      22   A24      21   D24      0
 H                    21   R25      16   A25      22   D25      0
 H                    22   R26      21   A26      23   D26      0
 H                    22   R27      21   A27      23   D27      0
 N                    23   R28      22   A28      24   D28      0
 C                    28   R29      23   A29      22   D29      0
 H                    28   R30      23   A30      29   D30      0
 H                    29   R31      28   A31      23   D31      0
 H                    29   R32      28   A32      31   D32      0
 H                    29   R33      28   A33      31   D33      0
       Variables:
  R2                    1.24788                  
  R3                    1.55639                  
  R4                    1.09559                  
  R5                    1.09616                  
  R6                    1.09559                  
  R7                    1.37809                  
  R8                    1.47443                  
  R9                    1.55119                  
  R10                   1.2461                   
  R11                   1.01231                  
  R12                   1.10032                  
  R13                   1.10032                  
  R14                   1.37185                  
  R15                   1.47335                  
  R16                   1.55565                  
  R17                   1.24722                  
  R18                   1.01511                  
  R19                   1.10004                  
  R20                   1.10004                  
  R21                   1.36991                  
  R22                   1.47284                  
  R23                   1.55888                  
  R24                   1.24248                  
  R25                   1.01466                  
  R26                   1.10023                  
  R27                   1.10023                  
  R28                   1.37334                  
  R29                   1.49516                  
  R30                   1.0114                   
  R31                   1.0941                   
  R32                   1.09558                  
  R33                   1.09558                  
  A3                  118.90334                  
  A4                  107.64138                  
  A5                  113.18321                  
  A6                  107.64139                  
  A7                  119.77501                  
  A8                  120.10088                  
  A9                  112.53145                  
  A10                 121.03013                  
  A11                 123.16334                  
  A12                 109.37376                  
  A13                 109.37378                  
  A14                 116.6514                   
  A15                 123.232                    
  A16                 110.23774                  
  A17                 119.90524                  
  A18                 121.9133                   
  A19                 109.98546                  
  A20                 109.98547                  
  A21                 118.46338                  
  A22                 121.30394                  
  A23                 111.99757                  
  A24                 120.55749                  
  A25                 122.8724                   
  A26                 109.36605                  
  A27                 109.36605                  
  A28                 115.41761                  
  A29                 126.89204                  
  A30                 117.26678                  
  A31                 107.70017                  
  A32                 109.84261                  
  A33                 109.84259                  
  D4                   58.44714                  
  D5                  121.55286                  
  D6                 -116.89434                  
  D7                  180.                       
  D8                    0.                       
  D9                  179.99992                  
  D10                   0.00006                  
  D11                 180.                       
  D12                -121.85599                  
  D13                 121.85595                  
  D14                 179.99994                  
  D15                 180.                       
  D16                 180.                       
  D17                   0.                       
  D18                 180.                       
  D19                -121.08473                  
  D20                 121.08472                  
  D21                 180.                       
  D22                 180.                       
  D23                 180.                       
  D24                   0.                       
  D25                 180.                       
  D26                -121.52303                  
  D27                 121.52296                  
  D28                 180.                       
  D29                 180.                       
  D30                 180.                       
  D31                  -0.00014                  
  D32                 119.28661                  
  D33                -119.28661                  
 
 NAtoms=     33 NQM=       33 NQMF=       0 NMMI=      0 NMMIF=      0
                NMic=       0 NMicF=      0.
                    Isotopes and Nuclear Properties:
 (Nuclear quadrupole moments (NQMom) in fm**2, nuclear magnetic moments (NMagM)
  in nuclear magnetons)

  Atom         1           2           3           4           5           6           7           8           9          10
 IAtWgt=          12          16          12           1           1           1          14          12          12          16
 AtmWgt=  12.0000000  15.9949146  12.0000000   1.0078250   1.0078250   1.0078250  14.0030740  12.0000000  12.0000000  15.9949146
 NucSpn=           0           0           0           1           1           1           2           0           0           0
 AtZEff=   0.0000000   0.0000000   0.0000000   0.0000000   0.0000000   0.0000000   0.0000000   0.0000000   0.0000000   0.0000000
 NQMom=    0.0000000   0.0000000   0.0000000   0.0000000   0.0000000   0.0000000   2.0440000   0.0000000   0.0000000   0.0000000
 NMagM=    0.0000000   0.0000000   0.0000000   2.7928460   2.7928460   2.7928460   0.4037610   0.0000000   0.0000000   0.0000000
 AtZNuc=   6.0000000   8.0000000   6.0000000   1.0000000   1.0000000   1.0000000   7.0000000   6.0000000   6.0000000   8.0000000

  Atom        11          12          13          14          15          16          17          18          19          20
 IAtWgt=           1           1           1          14          12          12          16           1           1           1
 AtmWgt=   1.0078250   1.0078250   1.0078250  14.0030740  12.0000000  12.0000000  15.9949146   1.0078250   1.0078250   1.0078250
 NucSpn=           1           1           1           2           0           0           0           1           1           1
 AtZEff=   0.0000000   0.0000000   0.0000000   0.0000000   0.0000000   0.0000000   0.0000000   0.0000000   0.0000000   0.0000000
 NQMom=    0.0000000   0.0000000   0.0000000   2.0440000   0.0000000   0.0000000   0.0000000   0.0000000   0.0000000   0.0000000
 NMagM=    2.7928460   2.7928460   2.7928460   0.4037610   0.0000000   0.0000000   0.0000000   2.7928460   2.7928460   2.7928460
 AtZNuc=   1.0000000   1.0000000   1.0000000   7.0000000   6.0000000   6.0000000   8.0000000   1.0000000   1.0000000   1.0000000

  Atom        21          22          23          24          25          26          27          28          29          30
 IAtWgt=          14          12          12          16           1           1           1          14          12           1
 AtmWgt=  14.0030740  12.0000000  12.0000000  15.9949146   1.0078250   1.0078250   1.0078250  14.0030740  12.0000000   1.0078250
 NucSpn=           2           0           0           0           1           1           1           2           0           1
 AtZEff=   0.0000000   0.0000000   0.0000000   0.0000000   0.0000000   0.0000000   0.0000000   0.0000000   0.0000000   0.0000000
 NQMom=    2.0440000   0.0000000   0.0000000   0.0000000   0.0000000   0.0000000   0.0000000   2.0440000   0.0000000   0.0000000
 NMagM=    0.4037610   0.0000000   0.0000000   0.0000000   2.7928460   2.7928460   2.7928460   0.4037610   0.0000000   2.7928460
 AtZNuc=   7.0000000   6.0000000   6.0000000   8.0000000   1.0000000   1.0000000   1.0000000   7.0000000   6.0000000   1.0000000

  Atom        31          32          33
 IAtWgt=           1           1           1
 AtmWgt=   1.0078250   1.0078250   1.0078250
 NucSpn=           1           1           1
 AtZEff=   0.0000000   0.0000000   0.0000000
 NQMom=    0.0000000   0.0000000   0.0000000
 NMagM=    2.7928460   2.7928460   2.7928460
 AtZNuc=   1.0000000   1.0000000   1.0000000
 Leave Link  101 at Fri Feb 17 11:43:25 2023, MaxMem=    33554432 cpu:         1.2
 (Enter /hits/basement/its/doserbd/software/gaussian/g09d1/g09/l103.exe)

 GradGradGradGradGradGradGradGradGradGradGradGradGradGradGradGradGradGrad
 Berny optimization.
 Initialization pass.
                       ----------------------------
                       !    Initial Parameters    !
                       ! (Angstroms and Degrees)  !
 ----------------------                            ----------------------
 !      Name          Value   Derivative information (Atomic Units)     !
 ------------------------------------------------------------------------
 !       R2          1.2479   estimate D2E/DX2                          !
 !       R3          1.5564   estimate D2E/DX2                          !
 !       R4          1.0956   estimate D2E/DX2                          !
 !       R5          1.0962   estimate D2E/DX2                          !
 !       R6          1.0956   estimate D2E/DX2                          !
 !       R7          1.3781   estimate D2E/DX2                          !
 !       R8          1.4744   estimate D2E/DX2                          !
 !       R9          1.5512   estimate D2E/DX2                          !
 !       R10         1.2461   estimate D2E/DX2                          !
 !       R11         1.0123   estimate D2E/DX2                          !
 !       R12         1.1003   estimate D2E/DX2                          !
 !       R13         1.1003   estimate D2E/DX2                          !
 !       R14         1.3718   estimate D2E/DX2                          !
 !       R15         1.4733   estimate D2E/DX2                          !
 !       R16         1.5557   estimate D2E/DX2                          !
 !       R17         1.2472   estimate D2E/DX2                          !
 !       R18         1.0151   estimate D2E/DX2                          !
 !       R19         1.1      estimate D2E/DX2                          !
 !       R20         1.1      estimate D2E/DX2                          !
 !       R21         1.3699   estimate D2E/DX2                          !
 !       R22         1.4728   estimate D2E/DX2                          !
 !       R23         1.5589   estimate D2E/DX2                          !
 !       R24         1.2425   estimate D2E/DX2                          !
 !       R25         1.0147   estimate D2E/DX2                          !
 !       R26         1.1002   estimate D2E/DX2                          !
 !       R27         1.1002   estimate D2E/DX2                          !
 !       R28         1.3733   estimate D2E/DX2                          !
 !       R29         1.4952   estimate D2E/DX2                          !
 !       R30         1.0114   estimate D2E/DX2                          !
 !       R31         1.0941   estimate D2E/DX2                          !
 !       R32         1.0956   estimate D2E/DX2                          !
 !       R33         1.0956   estimate D2E/DX2                          !
 !       A3        118.9033   estimate D2E/DX2                          !
 !       A4        107.6414   estimate D2E/DX2                          !
 !       A5        113.1832   estimate D2E/DX2                          !
 !       A6        107.6414   estimate D2E/DX2                          !
 !       A7        119.775    estimate D2E/DX2                          !
 !       A8        120.1009   estimate D2E/DX2                          !
 !       A9        112.5315   estimate D2E/DX2                          !
 !       A10       121.0301   estimate D2E/DX2                          !
 !       A11       123.1633   estimate D2E/DX2                          !
 !       A12       109.3738   estimate D2E/DX2                          !
 !       A13       109.3738   estimate D2E/DX2                          !
 !       A14       116.6514   estimate D2E/DX2                          !
 !       A15       123.232    estimate D2E/DX2                          !
 !       A16       110.2377   estimate D2E/DX2                          !
 !       A17       119.9052   estimate D2E/DX2                          !
 !       A18       121.9133   estimate D2E/DX2                          !
 !       A19       109.9855   estimate D2E/DX2                          !
 !       A20       109.9855   estimate D2E/DX2                          !
 !       A21       118.4634   estimate D2E/DX2                          !
 !       A22       121.3039   estimate D2E/DX2                          !
 !       A23       111.9976   estimate D2E/DX2                          !
 !       A24       120.5575   estimate D2E/DX2                          !
 !       A25       122.8724   estimate D2E/DX2                          !
 !       A26       109.366    estimate D2E/DX2                          !
 !       A27       109.3661   estimate D2E/DX2                          !
 !       A28       115.4176   estimate D2E/DX2                          !
 !       A29       126.892    estimate D2E/DX2                          !
 !       A30       117.2668   estimate D2E/DX2                          !
 !       A31       107.7002   estimate D2E/DX2                          !
 !       A32       109.8426   estimate D2E/DX2                          !
 !       A33       109.8426   estimate D2E/DX2                          !
 !       D4         58.4471   estimate D2E/DX2                          !
 !       D5        121.5529   estimate D2E/DX2                          !
 !       D6       -116.8943   estimate D2E/DX2                          !
 !       D7        180.0      estimate D2E/DX2                          !
 !       D8          0.0      estimate D2E/DX2                          !
 !       D9        179.9999   estimate D2E/DX2                          !
 !       D10         0.0001   estimate D2E/DX2                          !
 !       D11       180.0      estimate D2E/DX2                          !
 !       D12      -121.856    estimate D2E/DX2                          !
 !       D13       121.8559   estimate D2E/DX2                          !
 !       D14       179.9999   estimate D2E/DX2                          !
 !       D15       180.0      estimate D2E/DX2                          !
 !       D16       180.0      estimate D2E/DX2                          !
 !       D17         0.0      estimate D2E/DX2                          !
 !       D18       180.0      estimate D2E/DX2                          !
 !       D19      -121.0847   estimate D2E/DX2                          !
 !       D20       121.0847   estimate D2E/DX2                          !
 !       D21       180.0      estimate D2E/DX2                          !
 !       D22       180.0      estimate D2E/DX2                          !
 !       D23       180.0      estimate D2E/DX2                          !
 !       D24         0.0      estimate D2E/DX2                          !
 !       D25       180.0      estimate D2E/DX2                          !
 !       D26      -121.523    estimate D2E/DX2                          !
 !       D27       121.523    estimate D2E/DX2                          !
 !       D28       180.0      estimate D2E/DX2                          !
 !       D29       180.0      estimate D2E/DX2                          !
 !       D30       180.0      estimate D2E/DX2                          !
 !       D31        -0.0001   estimate D2E/DX2                          !
 !       D32       119.2866   estimate D2E/DX2                          !
 !       D33      -119.2866   estimate D2E/DX2                          !
 ------------------------------------------------------------------------
 Trust Radius=3.00D-01 FncErr=1.00D-07 GrdErr=1.00D-07
 Number of steps in this run=      2 maximum allowed number of steps=      2.
 GradGradGradGradGradGradGradGradGradGradGradGradGradGradGradGradGradGrad

 Leave Link  103 at Fri Feb 17 11:43:25 2023, MaxMem=    33554432 cpu:         0.1
 (Enter /hits/basement/its/doserbd/software/gaussian/g09d1/g09/l202.exe)
                          Input orientation:                          
 ---------------------------------------------------------------------
 Center     Atomic      Atomic             Coordinates (Angstroms)
 Number     Number       Type             X           Y           Z
 ---------------------------------------------------------------------
      1          6           0        0.000000    0.000000    0.000000
      2          8           0        0.000000    0.000000    1.247877
      3          6           0        1.362524    0.000000   -0.752258
      4          1           0        1.917262   -0.889713   -0.434446
      5          1           0        1.253272    0.000000   -1.842954
      6          1           0        1.917262    0.889714   -0.434447
      7          7           0       -1.196161    0.000000   -0.684355
      8          6           0       -2.471459    0.000000    0.055626
      9          6           0       -3.704658    0.000002   -0.885332
     10          8           0       -3.567609    0.000002   -2.123869
     11          1           0       -1.255992    0.000000   -1.694898
     12          1           0       -2.512217    0.881663    0.712671
     13          1           0       -2.512219   -0.881665    0.712668
     14          7           0       -4.937622    0.000002   -0.283865
     15          6           0       -6.203645    0.000004   -1.037483
     16          6           0       -7.412640    0.000004   -0.058513
     17          8           0       -7.215528    0.000002    1.173038
     18          1           0       -5.042129    0.000001    0.725854
     19          1           0       -6.253698   -0.885345   -1.688443
     20          1           0       -6.253697    0.885355   -1.688440
     21          7           0       -8.677924    0.000005   -0.583599
     22          6           0       -9.867085    0.000005    0.285393
     23          6           0      -11.191325    0.000007   -0.537097
     24          8           0      -11.163416    0.000008   -1.779266
     25          1           0       -8.859943    0.000006   -1.581799
     26          1           0       -9.841455    0.884808    0.938825
     27          1           0       -9.841457   -0.884801    0.938822
     28          7           0      -12.346514    0.000007    0.205598
     29          6           0      -13.748168    0.000008   -0.314841
     30          1           0      -12.250085    0.000005    1.212390
     31          1           0      -13.697202    0.000012   -1.407753
     32          1           0      -14.272266   -0.898806    0.028300
     33          1           0      -14.272266    0.898820    0.028306
 ---------------------------------------------------------------------
                    Distance matrix (angstroms):
                    1          2          3          4          5
     1  C    0.000000
     2  O    1.247877   0.000000
     3  C    1.556395   2.420126   0.000000
     4  H    2.157830   2.701425   1.095595   0.000000
     5  H    2.228715   3.335256   1.096155   1.793424   0.000000
     6  H    2.157830   2.701426   1.095595   1.779427   1.793423
     7  N    1.378094   2.272515   2.559586   3.247684   2.709626
     8  C    2.472085   2.744007   3.918176   4.504735   4.180697
     9  C    3.808977   4.274936   5.068930   5.709718   5.049565
    10  O    4.151946   4.908820   5.117376   5.807716   4.829058
    11  H    2.109549   3.199600   2.783020   3.528437   2.513627
    12  H    2.756168   2.715697   4.235205   4.906520   4.635456
    13  H    2.756170   2.715699   4.235207   4.575614   4.635457
    14  N    4.945775   5.169753   6.317535   6.914023   6.384194
    15  C    6.289800   6.611209   7.571544   8.191726   7.500292
    16  C    7.412871   7.526878   8.802545   9.379766   8.847726
    17  O    7.310258   7.215916   8.791459   9.315764   8.989815
    18  H    5.094108   5.069081   6.573006   7.111331   6.799327
    19  H    6.537845   6.965238   7.724450   8.266627   7.560575
    20  H    6.537844   6.965238   7.724449   8.455054   7.560575
    21  N    8.697525   8.869085  10.041865  10.633523  10.010725
    22  C    9.871212   9.913917  11.277449  11.839789  11.322199
    23  C   11.204206  11.332779  12.555693  13.139148  12.512923
    24  O   11.304320  11.566567  12.567973  13.179693  12.416851
    25  H    9.000038   9.300842  10.256070  10.874565  10.116586
    26  H    9.925649   9.885982  11.365377  11.970891  11.472321
    27  H    9.925650   9.885983  11.365378  11.838639  11.472321
    28  N   12.348226  12.390430  13.742461  14.305823  13.753208
    29  C   13.751773  13.836698  15.117023  15.691132  15.079069
    30  H   12.309934  12.250136  13.753653  14.290465  13.844702
    31  H   13.769354  13.952266  15.073986  15.670049  14.956807
    32  H   14.300568  14.352450  15.680045  16.196143  15.663709
    33  H   14.300569  14.352450  15.680046  16.294595  15.663710
                    6          7          8          9         10
     6  H    0.000000
     7  N    3.247683   0.000000
     8  C    4.504735   1.474435   0.000000
     9  C    5.709717   2.516535   1.551188   0.000000
    10  O    5.807714   2.774161   2.439620   1.246097   0.000000
    11  H    3.528437   1.012313   2.131126   2.579024   2.351083
    12  H    4.575612   2.112111   1.100317   2.180105   3.152323
    13  H    4.906522   2.112112   1.100317   2.180104   3.152322
    14  N    6.914022   3.762835   2.489421   1.371847   2.294026
    15  C    8.191725   5.019920   3.888971   2.503614   2.851126
    16  C    9.379765   6.247903   4.942500   3.799048   4.364626
    17  O    9.315764   6.299420   4.873890   4.069778   4.917002
    18  H    7.111330   4.096360   2.656605   2.093980   3.208603
    19  H    8.455053   5.231702   4.258044   2.815392   2.861557
    20  H    8.266625   5.231702   4.258045   2.815392   2.861558
    21  N   10.633522   7.482441   6.239296   4.982410   5.337391
    22  C   11.839788   8.724984   7.399194   6.272647   6.744475
    23  C   13.139147   9.996249   8.739988   7.494761   7.787098
    24  O   13.179691  10.027213   8.883521   7.512136   7.603620
    25  H   10.874564   7.716149   6.594990   5.202118   5.320022
    26  H   11.838637   8.840741   7.475277   6.463026   7.037338
    27  H   11.970892   8.840742   7.475278   6.463027   7.037338
    28  N   14.305822  11.185812   9.876194   8.710442   9.082709
    29  C   15.691131  12.557445  11.282793  10.059700  10.340037
    30  H   14.290464  11.215475   9.846808   8.799134   9.301398
    31  H   15.670047  12.521954  11.320724  10.006191  10.154874
    32  H   16.294593  13.126319  11.835018  10.645042  10.955792
    33  H   16.196143  13.126321  11.835019  10.645043  10.955794
                   11         12         13         14         15
    11  H    0.000000
    12  H    2.855139   0.000000
    13  H    2.855139   1.763327   0.000000
    14  N    3.942768   2.766406   2.766405   0.000000
    15  C    4.991139   4.179354   4.179353   1.473348   0.000000
    16  C    6.370407   5.038472   5.038471   2.485256   1.555652
    17  O    6.613708   4.807328   4.807327   2.703964   2.431113
    18  H    4.493871   2.679171   2.679171   1.015113   2.111510
    19  H    5.075524   4.783967   4.445674   2.118663   1.100044
    20  H    5.075525   4.445674   4.783967   2.118663   1.100044
    21  N    7.504669   6.361885   6.361884   3.752292   2.515565
    22  C    8.835864   7.419837   7.419836   4.962223   3.894971
    23  C   10.002567   8.812840   8.812840   6.258828   5.012718
    24  O    9.907784   9.046011   9.046011   6.402869   5.014935
    25  H    7.604792   6.807021   6.807020   4.131493   2.711494
    26  H    9.023833   7.332727   7.542498   5.130831   4.233478
    27  H    9.023833   7.542500   7.332727   5.130832   4.233478
    28  N   11.252181   9.886751   9.886750   7.425042   6.267384
    29  C   12.568176  11.317230  11.317230   8.810600   7.579053
    30  H   11.372001   9.790460   9.790460   7.463972   6.451462
    31  H   12.444524  11.418292  11.418292   8.831385   7.502700
    32  H   13.160572  11.913740  11.779956   9.383010   8.188187
    33  H   13.160574  11.779958  11.913740   9.383011   8.188188
                   16         17         18         19         20
    16  C    0.000000
    17  O    1.247225   0.000000
    18  H    2.496909   2.218927   0.000000
    19  H    2.187158   3.145954   2.842633   0.000000
    20  H    2.187158   3.145954   2.842633   1.770700   0.000000
    21  N    1.369911   2.285688   3.864410   2.807382   2.807382
    22  C    2.478421   2.796188   4.845018   4.211465   4.211465
    23  C    3.808871   4.327993   6.277551   5.146806   5.146805
    24  O    4.126659   4.929698   6.614059   4.989733   4.989733
    25  H    2.101210   3.208305   4.461049   2.754584   2.754584
    26  H    2.770686   2.780868   4.884851   4.786228   4.446856
    27  H    2.770687   2.780869   4.884852   4.446857   4.786228
    28  N    4.940938   5.221394   7.322889   6.441557   6.441556
    29  C    6.340711   6.699938   8.768019   7.670575   7.670575
    30  H    5.001606   5.034710   7.224357   6.719772   6.719771
    31  H    6.427765   6.976573   8.914178   7.501226   7.501226
    32  H    6.918805   7.205264   9.299993   8.200294   8.392132
    33  H    6.918806   7.205264   9.299993   8.392134   8.200296
                   21         22         23         24         25
    21  N    0.000000
    22  C    1.472838   0.000000
    23  C    2.513832   1.558878   0.000000
    24  O    2.758133   2.437887   1.242483   0.000000
    25  H    1.014660   2.121496   2.554750   2.311922   0.000000
    26  H    2.110558   1.100230   2.187092   3.149361   2.846012
    27  H    2.110559   1.100231   2.187091   3.149360   2.846012
    28  N    3.752518   2.480713   1.373339   2.310716   3.918031
    29  C    5.077363   3.927224   2.566485   2.970772   5.049746
    30  H    3.998239   2.556953   2.044915   3.182900   4.393240
    31  H    5.086491   4.187665   2.652821   2.560877   4.840389
    32  H    5.699031   4.503285   3.258794   3.706765   5.717825
    33  H    5.699032   4.503286   3.258795   3.706768   5.717827
                   26         27         28         29         30
    26  H    0.000000
    27  H    1.769609   0.000000
    28  N    2.756051   2.756050   0.000000
    29  C    4.197256   4.197255   1.495156   0.000000
    30  H    2.580545   2.580544   1.011399   2.139319   0.000000
    31  H    4.599574   4.599574   2.104106   1.094100   2.993209
    32  H    4.862348   4.523419   2.132562   1.095578   2.509811
    33  H    4.523420   4.862347   2.132562   1.095578   2.509809
                   31         32         33
    31  H    0.000000
    32  H    1.789084   0.000000
    33  H    1.789084   1.797627   0.000000
 Stoichiometry    C9H16N4O4
 Framework group  C1[X(C9H16N4O4)]
 Deg. of freedom    93
 Full point group                 C1      NOp   1
 Largest Abelian subgroup         C1      NOp   1
 Largest concise Abelian subgroup C1      NOp   1
                         Standard orientation:                         
 ---------------------------------------------------------------------
 Center     Atomic      Atomic             Coordinates (Angstroms)
 Number     Number       Type             X           Y           Z
 ---------------------------------------------------------------------
      1          6           0       -6.054818   -0.321053   -0.000001
      2          8           0       -6.061932   -1.568909   -0.000001
      3          6           0       -7.413031    0.438961   -0.000001
      4          1           0       -7.969573    0.124317    0.889712
      5          1           0       -7.297562    1.529017    0.000000
      6          1           0       -7.969571    0.124319   -0.889715
      7          7           0       -4.854774    0.356472    0.000001
      8          6           0       -3.583716   -0.390768    0.000001
      9          6           0       -2.345172    0.543144    0.000000
     10          8           0       -2.475158    1.782443    0.000001
     11          1           0       -4.789183    1.366658    0.000001
     12          1           0       -3.546704   -1.048034   -0.881662
     13          1           0       -3.546703   -1.048033    0.881665
     14          7           0       -1.115657   -0.065343    0.000000
     15          6           0        0.154641    0.681046    0.000000
     16          6           0        1.358036   -0.304801    0.000000
     17          8           0        1.153906   -1.535208    0.000001
     18          1           0       -1.016908   -1.075641    0.000001
     19          1           0        0.208404    1.331709    0.885350
     20          1           0        0.208404    1.331708   -0.885351
     21          7           0        2.626292    0.213063    0.000000
     22          6           0        3.810480   -0.662695    0.000000
     23          6           0        5.139388    0.152232    0.000000
     24          8           0        5.118561    1.394541   -0.000001
     25          1           0        2.813999    1.210209   -0.000001
     26          1           0        3.781126   -1.315969   -0.884804
     27          1           0        3.781127   -1.315968    0.884806
     28          7           0        6.290324   -0.597037    0.000000
     29          6           0        7.694922   -0.084597    0.000000
     30          1           0        6.188156   -1.603262    0.000000
     31          1           0        7.650188    1.008588   -0.000004
     32          1           0        8.217055   -0.430721    0.898814
     33          1           0        8.217056   -0.430726   -0.898813
 ---------------------------------------------------------------------
 Rotational constants (GHZ):      2.3431199      0.0976081      0.0939816
 Leave Link  202 at Fri Feb 17 11:43:25 2023, MaxMem=    33554432 cpu:         0.1
 (Enter /hits/basement/its/doserbd/software/gaussian/g09d1/g09/l301.exe)
 Standard basis: 6-31+G (6D, 7F)
 Ernie: Thresh=  0.10000D-02 Tol=  0.10000D-05 Strict=F.
 There are   253 symmetry adapted cartesian basis functions of A   symmetry.
 There are   253 symmetry adapted basis functions of A   symmetry.
   253 basis functions,   506 primitive gaussians,   253 cartesian basis functions
    65 alpha electrons       65 beta electrons
       nuclear repulsion energy      1116.1741553376 Hartrees.
 IExCor= 3226 DFT=T Ex+Corr=BMK ExCW=0 ScaHFX=  0.420000
 ScaDFX=  1.000000  1.000000  1.000000  1.000000 ScalE2=  1.000000  1.000000
 IRadAn=      0 IRanWt=     -1 IRanGd=            0 ICorTp=0 IEmpDi=  4
 NAtoms=   33 NActive=   33 NUniq=   33 SFac= 1.00D+00 NAtFMM=   60 NAOKFM=F Big=F
 Integral buffers will be    131072 words long.
 Raffenetti 2 integral format.
 Two-electron integral symmetry is turned on.
 Leave Link  301 at Fri Feb 17 11:43:25 2023, MaxMem=    33554432 cpu:         0.3
 (Enter /hits/basement/its/doserbd/software/gaussian/g09d1/g09/l302.exe)
 NPDir=0 NMtPBC=     1 NCelOv=     1 NCel=       1 NClECP=     1 NCelD=      1
         NCelK=      1 NCelE2=     1 NClLst=     1 CellRange=     0.0.
 One-electron integrals computed using PRISM.
 NBasis=   253 RedAO= T EigKep=  9.11D-06  NBF=   253
 NBsUse=   253 1.00D-06 EigRej= -1.00D+00 NBFU=   253
 Precomputing XC quadrature grid using
 IXCGrd= 4 IRadAn=           0 IRanWt=          -1 IRanGd=           0 AccXCQ= 0.00D+00.
 Generated NRdTot=       0 NPtTot=           0 NUsed=           0 NTot=          32
 NSgBfM=   242   242   242   242   242 MxSgAt=    33 MxSgA2=    33.
 Leave Link  302 at Fri Feb 17 11:43:26 2023, MaxMem=    33554432 cpu:         2.5
 (Enter /hits/basement/its/doserbd/software/gaussian/g09d1/g09/l303.exe)
 DipDrv:  MaxL=1.
 Leave Link  303 at Fri Feb 17 11:43:26 2023, MaxMem=    33554432 cpu:         0.3
 (Enter /hits/basement/its/doserbd/software/gaussian/g09d1/g09/l401.exe)
 ExpMin= 4.38D-02 ExpMax= 5.48D+03 ExpMxC= 8.25D+02 IAcc=2 IRadAn=         4 AccDes= 0.00D+00
 Harris functional with IExCor= 1009 and IRadAn=       4 diagonalized for initial guess.
 HarFok:  IExCor= 1009 AccDes= 0.00D+00 IRadAn=         4 IDoV= 1 UseB2=F ITyADJ=14
 ICtDFT=  3500011 ScaDFX=  1.000000  1.000000  1.000000  1.000000
 FoFCou: FMM=F IPFlag=           0 FMFlag=      100000 FMFlg1=           0
         NFxFlg=           0 DoJE=T BraDBF=F KetDBF=T FulRan=T
         wScrn=  0.000000 ICntrl=     500 IOpCl=  0 I1Cent=   200000004 NGrid=           0
         NMat0=    1 NMatS0=      1 NMatT0=    0 NMatD0=    1 NMtDS0=    0 NMtDT0=    0
 Petite list used in FoFCou.
 Harris En= -871.519423190929    
 JPrj=0 DoOrth=F DoCkMO=F.
 Leave Link  401 at Fri Feb 17 11:43:27 2023, MaxMem=    33554432 cpu:         8.0
 (Enter /hits/basement/its/doserbd/software/gaussian/g09d1/g09/l502.exe)
 Closed shell SCF:
 Using DIIS extrapolation, IDIIS=  1040.
 Integral symmetry usage will be decided dynamically.
 IVT=      214538 IEndB=      214538 NGot=    33554432 MDV=    33420797
 LenX=    33420797 LenY=    33356347
 Requested convergence on RMS density matrix=1.00D-08 within 128 cycles.
 Requested convergence on MAX density matrix=1.00D-06.
 Requested convergence on             energy=1.00D-06.
 No special actions if energy rises.
 Fock matrices will be formed incrementally for  20 cycles.

 Cycle   1  Pass 1  IDiag  1:
 FoFJK:  IHMeth= 1 ICntrl=       0 DoSepK=F KAlg= 0 I1Cent=   0 FoldK=F
 IRaf= 720000000 NMat=   1 IRICut=       1 DoRegI=T DoRafI=F ISym2E= 0.
 FoFCou: FMM=F IPFlag=           0 FMFlag=      100000 FMFlg1=           0
         NFxFlg=           0 DoJE=F BraDBF=F KetDBF=F FulRan=T
         wScrn=  0.000000 ICntrl=       0 IOpCl=  0 I1Cent=           0 NGrid=           0
         NMat0=    1 NMatS0=      1 NMatT0=    0 NMatD0=    1 NMtDS0=    0 NMtDT0=    0
 Symmetry not used in FoFCou.
 E= -871.448623686378    
 DIIS: error= 3.40D-02 at cycle   1 NSaved=   1.
 NSaved= 1 IEnMin= 1 EnMin= -871.448623686378     IErMin= 1 ErrMin= 3.40D-02
 ErrMax= 3.40D-02  0.00D+00 EMaxC= 1.00D-01 BMatC= 4.64D-01 BMatP= 4.64D-01
 IDIUse=3 WtCom= 6.60D-01 WtEn= 3.40D-01
 Coeff-Com:  0.100D+01
 Coeff-En:   0.100D+01
 Coeff:      0.100D+01
 Gap=     0.320 Goal=   None    Shift=    0.000
 GapD=    0.320 DampG=1.000 DampE=0.500 DampFc=0.5000 IDamp=-1.
 Damping current iteration by 5.00D-01
 RMSDP=3.11D-02 MaxDP=1.98D+00              OVMax= 2.76D-01

 Cycle   2  Pass 1  IDiag  1:
 RMSU=  1.23D-02    CP:  1.21D+00
 E= -871.557246104136     Delta-E=       -0.108622417758 Rises=F Damp=T
 DIIS: error= 1.48D-02 at cycle   2 NSaved=   2.
 NSaved= 2 IEnMin= 2 EnMin= -871.557246104136     IErMin= 2 ErrMin= 1.48D-02
 ErrMax= 1.48D-02  0.00D+00 EMaxC= 1.00D-01 BMatC= 7.04D-02 BMatP= 4.64D-01
 IDIUse=3 WtCom= 8.52D-01 WtEn= 1.48D-01
 Coeff-Com:  0.227D+00 0.773D+00
 Coeff-En:   0.344D+00 0.656D+00
 Coeff:      0.245D+00 0.755D+00
 Gap=     0.305 Goal=   None    Shift=    0.000
 RMSDP=1.48D-02 MaxDP=1.22D+00 DE=-1.09D-01 OVMax= 1.37D-01

 Cycle   3  Pass 1  IDiag  1:
 RMSU=  6.53D-03    CP:  9.63D-01  4.26D-01
 E= -871.821450589426     Delta-E=       -0.264204485290 Rises=F Damp=F
 DIIS: error= 1.16D-02 at cycle   3 NSaved=   3.
 NSaved= 3 IEnMin= 3 EnMin= -871.821450589426     IErMin= 3 ErrMin= 1.16D-02
 ErrMax= 1.16D-02  0.00D+00 EMaxC= 1.00D-01 BMatC= 2.85D-02 BMatP= 7.04D-02
 IDIUse=3 WtCom= 8.84D-01 WtEn= 1.16D-01
 Coeff-Com:  0.752D-01 0.391D+00 0.534D+00
 Coeff-En:   0.000D+00 0.000D+00 0.100D+01
 Coeff:      0.665D-01 0.346D+00 0.588D+00
 Gap=     0.314 Goal=   None    Shift=    0.000
 RMSDP=1.91D-03 MaxDP=1.09D-01 DE=-2.64D-01 OVMax= 4.09D-02

 Cycle   4  Pass 1  IDiag  1:
 RMSU=  1.63D-03    CP:  9.77D-01  4.87D-01  1.02D+00
 E= -871.844990978737     Delta-E=       -0.023540389311 Rises=F Damp=F
 DIIS: error= 4.02D-03 at cycle   4 NSaved=   4.
 NSaved= 4 IEnMin= 4 EnMin= -871.844990978737     IErMin= 4 ErrMin= 4.02D-03
 ErrMax= 4.02D-03  0.00D+00 EMaxC= 1.00D-01 BMatC= 3.62D-03 BMatP= 2.85D-02
 IDIUse=3 WtCom= 9.60D-01 WtEn= 4.02D-02
 Coeff-Com:  0.135D-01 0.317D-01 0.265D+00 0.690D+00
 Coeff-En:   0.000D+00 0.000D+00 0.528D-01 0.947D+00
 Coeff:      0.130D-01 0.304D-01 0.256D+00 0.701D+00
 Gap=     0.311 Goal=   None    Shift=    0.000
 RMSDP=7.01D-04 MaxDP=4.77D-02 DE=-2.35D-02 OVMax= 1.07D-02

 Cycle   5  Pass 1  IDiag  1:
 RMSU=  2.94D-04    CP:  9.69D-01  4.51D-01  1.03D+00  8.55D-01
 E= -871.847757976213     Delta-E=       -0.002766997477 Rises=F Damp=F
 DIIS: error= 8.64D-04 at cycle   5 NSaved=   5.
 NSaved= 5 IEnMin= 5 EnMin= -871.847757976213     IErMin= 5 ErrMin= 8.64D-04
 ErrMax= 8.64D-04  0.00D+00 EMaxC= 1.00D-01 BMatC= 2.46D-04 BMatP= 3.62D-03
 IDIUse=3 WtCom= 9.91D-01 WtEn= 8.64D-03
 Coeff-Com:  0.300D-02-0.142D-01 0.921D-01 0.353D+00 0.566D+00
 Coeff-En:   0.000D+00 0.000D+00 0.000D+00 0.000D+00 0.100D+01
 Coeff:      0.297D-02-0.141D-01 0.913D-01 0.350D+00 0.570D+00
 Gap=     0.310 Goal=   None    Shift=    0.000
 RMSDP=2.32D-04 MaxDP=1.55D-02 DE=-2.77D-03 OVMax= 3.20D-03

 Cycle   6  Pass 1  IDiag  1:
 RMSU=  1.22D-04    CP:  9.65D-01  4.44D-01  1.04D+00  8.50D-01  7.63D-01
 E= -871.847977354003     Delta-E=       -0.000219377789 Rises=F Damp=F
 DIIS: error= 2.13D-04 at cycle   6 NSaved=   6.
 NSaved= 6 IEnMin= 6 EnMin= -871.847977354003     IErMin= 6 ErrMin= 2.13D-04
 ErrMax= 2.13D-04  0.00D+00 EMaxC= 1.00D-01 BMatC= 1.42D-05 BMatP= 2.46D-04
 IDIUse=3 WtCom= 9.98D-01 WtEn= 2.13D-03
 Coeff-Com:  0.166D-02-0.870D-02 0.292D-01 0.113D+00 0.251D+00 0.614D+00
 Coeff-En:   0.000D+00 0.000D+00 0.000D+00 0.000D+00 0.000D+00 0.100D+01
 Coeff:      0.166D-02-0.868D-02 0.291D-01 0.113D+00 0.250D+00 0.615D+00
 Gap=     0.310 Goal=   None    Shift=    0.000
 RMSDP=8.27D-05 MaxDP=7.88D-03 DE=-2.19D-04 OVMax= 8.02D-04

 Cycle   7  Pass 1  IDiag  1:
 RMSU=  5.35D-05    CP:  9.64D-01  4.41D-01  1.04D+00  8.42D-01  8.27D-01
                    CP:  8.80D-01
 E= -871.847986731590     Delta-E=       -0.000009377588 Rises=F Damp=F
 DIIS: error= 1.08D-04 at cycle   7 NSaved=   7.
 NSaved= 7 IEnMin= 7 EnMin= -871.847986731590     IErMin= 7 ErrMin= 1.08D-04
 ErrMax= 1.08D-04  0.00D+00 EMaxC= 1.00D-01 BMatC= 3.85D-06 BMatP= 1.42D-05
 IDIUse=3 WtCom= 9.99D-01 WtEn= 1.08D-03
 Coeff-Com:  0.765D-03-0.302D-02-0.139D-02-0.941D-02 0.383D-01 0.377D+00
 Coeff-Com:  0.597D+00
 Coeff-En:   0.000D+00 0.000D+00 0.000D+00 0.000D+00 0.000D+00 0.295D-01
 Coeff-En:   0.971D+00
 Coeff:      0.765D-03-0.302D-02-0.139D-02-0.940D-02 0.382D-01 0.377D+00
 Coeff:      0.598D+00
 Gap=     0.310 Goal=   None    Shift=    0.000
 RMSDP=3.65D-05 MaxDP=2.07D-03 DE=-9.38D-06 OVMax= 3.65D-04

 Cycle   8  Pass 1  IDiag  1:
 RMSU=  2.08D-05    CP:  9.64D-01  4.39D-01  1.04D+00  8.44D-01  8.25D-01
                    CP:  9.53D-01  7.41D-01
 E= -871.847989761639     Delta-E=       -0.000003030048 Rises=F Damp=F
 DIIS: error= 2.61D-05 at cycle   8 NSaved=   8.
 NSaved= 8 IEnMin= 8 EnMin= -871.847989761639     IErMin= 8 ErrMin= 2.61D-05
 ErrMax= 2.61D-05  0.00D+00 EMaxC= 1.00D-01 BMatC= 3.26D-07 BMatP= 3.85D-06
 IDIUse=1 WtCom= 1.00D+00 WtEn= 0.00D+00
 Coeff-Com:  0.217D-03-0.217D-03-0.486D-02-0.228D-01-0.188D-01 0.767D-01
 Coeff-Com:  0.282D+00 0.688D+00
 Coeff:      0.217D-03-0.217D-03-0.486D-02-0.228D-01-0.188D-01 0.767D-01
 Coeff:      0.282D+00 0.688D+00
 Gap=     0.310 Goal=   None    Shift=    0.000
 RMSDP=1.23D-05 MaxDP=7.84D-04 DE=-3.03D-06 OVMax= 1.24D-04

 Cycle   9  Pass 1  IDiag  1:
 RMSU=  5.14D-06    CP:  9.64D-01  4.38D-01  1.04D+00  8.43D-01  8.44D-01
                    CP:  9.32D-01  8.33D-01  1.10D+00
 E= -871.847990081049     Delta-E=       -0.000000319411 Rises=F Damp=F
 DIIS: error= 5.48D-06 at cycle   9 NSaved=   9.
 NSaved= 9 IEnMin= 9 EnMin= -871.847990081049     IErMin= 9 ErrMin= 5.48D-06
 ErrMax= 5.48D-06  0.00D+00 EMaxC= 1.00D-01 BMatC= 1.34D-08 BMatP= 3.26D-07
 IDIUse=1 WtCom= 1.00D+00 WtEn= 0.00D+00
 Coeff-Com: -0.217D-04 0.206D-03-0.555D-03-0.312D-02-0.641D-02-0.285D-01
 Coeff-Com: -0.667D-02 0.173D+00 0.872D+00
 Coeff:     -0.217D-04 0.206D-03-0.555D-03-0.312D-02-0.641D-02-0.285D-01
 Coeff:     -0.667D-02 0.173D+00 0.872D+00
 Gap=     0.310 Goal=   None    Shift=    0.000
 RMSDP=3.37D-06 MaxDP=2.07D-04 DE=-3.19D-07 OVMax= 3.51D-05

 Cycle  10  Pass 1  IDiag  1:
 RMSU=  1.61D-06    CP:  9.64D-01  4.38D-01  1.04D+00  8.43D-01  8.45D-01
                    CP:  9.45D-01  8.32D-01  1.12D+00  9.46D-01
 E= -871.847990097255     Delta-E=       -0.000000016206 Rises=F Damp=F
 DIIS: error= 1.41D-06 at cycle  10 NSaved=  10.
 NSaved=10 IEnMin=10 EnMin= -871.847990097255     IErMin=10 ErrMin= 1.41D-06
 ErrMax= 1.41D-06  0.00D+00 EMaxC= 1.00D-01 BMatC= 1.03D-09 BMatP= 1.34D-08
 IDIUse=1 WtCom= 1.00D+00 WtEn= 0.00D+00
 Coeff-Com: -0.163D-04 0.949D-04-0.543D-04-0.540D-03-0.204D-02-0.145D-01
 Coeff-Com: -0.127D-01 0.497D-01 0.360D+00 0.620D+00
 Coeff:     -0.163D-04 0.949D-04-0.543D-04-0.540D-03-0.204D-02-0.145D-01
 Coeff:     -0.127D-01 0.497D-01 0.360D+00 0.620D+00
 Gap=     0.310 Goal=   None    Shift=    0.000
 RMSDP=5.37D-07 MaxDP=4.02D-05 DE=-1.62D-08 OVMax= 8.75D-06

 Cycle  11  Pass 1  IDiag  1:
 RMSU=  3.48D-07    CP:  9.64D-01  4.38D-01  1.04D+00  8.42D-01  8.45D-01
                    CP:  9.44D-01  8.37D-01  1.12D+00  9.65D-01  9.47D-01
 E= -871.847990098079     Delta-E=       -0.000000000824 Rises=F Damp=F
 DIIS: error= 6.53D-07 at cycle  11 NSaved=  11.
 NSaved=11 IEnMin=11 EnMin= -871.847990098079     IErMin=11 ErrMin= 6.53D-07
 ErrMax= 6.53D-07  0.00D+00 EMaxC= 1.00D-01 BMatC= 1.98D-10 BMatP= 1.03D-09
 IDIUse=1 WtCom= 1.00D+00 WtEn= 0.00D+00
 Coeff-Com: -0.385D-05 0.112D-04 0.764D-04 0.269D-03 0.124D-03-0.207D-02
 Coeff-Com: -0.500D-02-0.621D-02 0.221D-01 0.308D+00 0.682D+00
 Coeff:     -0.385D-05 0.112D-04 0.764D-04 0.269D-03 0.124D-03-0.207D-02
 Coeff:     -0.500D-02-0.621D-02 0.221D-01 0.308D+00 0.682D+00
 Gap=     0.310 Goal=   None    Shift=    0.000
 RMSDP=2.91D-07 MaxDP=2.60D-05 DE=-8.24D-10 OVMax= 3.81D-06

 Cycle  12  Pass 1  IDiag  1:
 RMSU=  1.36D-07    CP:  9.64D-01  4.38D-01  1.04D+00  8.42D-01  8.45D-01
                    CP:  9.43D-01  8.36D-01  1.13D+00  9.71D-01  9.87D-01
                    CP:  7.77D-01
 E= -871.847990098233     Delta-E=       -0.000000000154 Rises=F Damp=F
 DIIS: error= 4.26D-07 at cycle  12 NSaved=  12.
 NSaved=12 IEnMin=12 EnMin= -871.847990098233     IErMin=12 ErrMin= 4.26D-07
 ErrMax= 4.26D-07  0.00D+00 EMaxC= 1.00D-01 BMatC= 3.24D-11 BMatP= 1.98D-10
 IDIUse=1 WtCom= 1.00D+00 WtEn= 0.00D+00
 Coeff-Com: -0.822D-06-0.805D-06 0.514D-04 0.199D-03 0.238D-03-0.918D-04
 Coeff-Com: -0.200D-02-0.771D-02-0.147D-01 0.136D+00 0.395D+00 0.493D+00
 Coeff:     -0.822D-06-0.805D-06 0.514D-04 0.199D-03 0.238D-03-0.918D-04
 Coeff:     -0.200D-02-0.771D-02-0.147D-01 0.136D+00 0.395D+00 0.493D+00
 Gap=     0.310 Goal=   None    Shift=    0.000
 RMSDP=7.95D-08 MaxDP=5.16D-06 DE=-1.54D-10 OVMax= 1.18D-06

 Cycle  13  Pass 1  IDiag  1:
 RMSU=  5.16D-08    CP:  9.64D-01  4.38D-01  1.04D+00  8.42D-01  8.45D-01
                    CP:  9.43D-01  8.37D-01  1.13D+00  9.72D-01  9.82D-01
                    CP:  8.61D-01  8.21D-01
 E= -871.847990098257     Delta-E=       -0.000000000024 Rises=F Damp=F
 DIIS: error= 1.25D-07 at cycle  13 NSaved=  13.
 NSaved=13 IEnMin=13 EnMin= -871.847990098257     IErMin=13 ErrMin= 1.25D-07
 ErrMax= 1.25D-07  0.00D+00 EMaxC= 1.00D-01 BMatC= 2.78D-12 BMatP= 3.24D-11
 IDIUse=1 WtCom= 1.00D+00 WtEn= 0.00D+00
 Coeff-Com:  0.311D-06-0.181D-05 0.131D-04 0.472D-04 0.886D-04 0.231D-03
 Coeff-Com: -0.234D-03-0.260D-02-0.942D-02 0.155D-01 0.746D-01 0.246D+00
 Coeff-Com:  0.676D+00
 Coeff:      0.311D-06-0.181D-05 0.131D-04 0.472D-04 0.886D-04 0.231D-03
 Coeff:     -0.234D-03-0.260D-02-0.942D-02 0.155D-01 0.746D-01 0.246D+00
 Coeff:      0.676D+00
 Gap=     0.310 Goal=   None    Shift=    0.000
 RMSDP=2.65D-08 MaxDP=1.38D-06 DE=-2.41D-11 OVMax= 3.31D-07

 Cycle  14  Pass 1  IDiag  1:
 RMSU=  1.59D-08    CP:  9.64D-01  4.38D-01  1.04D+00  8.42D-01  8.45D-01
                    CP:  9.43D-01  8.37D-01  1.13D+00  9.73D-01  9.88D-01
                    CP:  8.49D-01  8.99D-01  8.37D-01
 E= -871.847990098260     Delta-E=       -0.000000000003 Rises=F Damp=F
 DIIS: error= 1.94D-08 at cycle  14 NSaved=  14.
 NSaved=14 IEnMin=14 EnMin= -871.847990098260     IErMin=14 ErrMin= 1.94D-08
 ErrMax= 1.94D-08  0.00D+00 EMaxC= 1.00D-01 BMatC= 1.73D-13 BMatP= 2.78D-12
 IDIUse=1 WtCom= 1.00D+00 WtEn= 0.00D+00
 Coeff-Com:  0.248D-06-0.736D-06 0.982D-06 0.698D-06 0.165D-04 0.112D-03
 Coeff-Com:  0.831D-04-0.405D-03-0.266D-02-0.608D-02-0.515D-02 0.550D-01
 Coeff-Com:  0.285D+00 0.674D+00
 Coeff:      0.248D-06-0.736D-06 0.982D-06 0.698D-06 0.165D-04 0.112D-03
 Coeff:      0.831D-04-0.405D-03-0.266D-02-0.608D-02-0.515D-02 0.550D-01
 Coeff:      0.285D+00 0.674D+00
 Gap=     0.310 Goal=   None    Shift=    0.000
 RMSDP=6.46D-09 MaxDP=3.69D-07 DE=-3.41D-12 OVMax= 6.82D-08

 SCF Done:  E(RBMK) =  -871.847990098     A.U. after   14 cycles
            NFock= 14  Conv=0.65D-08     -V/T= 2.0065
 KE= 8.662564506813D+02 PE=-4.268266097795D+03 EE= 1.413987501678D+03
 Leave Link  502 at Fri Feb 17 11:44:04 2023, MaxMem=    33554432 cpu:       298.2
 (Enter /hits/basement/its/doserbd/software/gaussian/g09d1/g09/l601.exe)
 Copying SCF densities to generalized density rwf, IOpCl= 0 IROHF=0.

 **********************************************************************

            Population analysis using the SCF density.

 **********************************************************************

 Orbital symmetries:
       Occupied  (A) (A) (A) (A) (A) (A) (A) (A) (A) (A) (A) (A)
                 (A) (A) (A) (A) (A) (A) (A) (A) (A) (A) (A) (A)
                 (A) (A) (A) (A) (A) (A) (A) (A) (A) (A) (A) (A)
                 (A) (A) (A) (A) (A) (A) (A) (A) (A) (A) (A) (A)
                 (A) (A) (A) (A) (A) (A) (A) (A) (A) (A) (A) (A)
                 (A) (A) (A) (A) (A)
       Virtual   (A) (A) (A) (A) (A) (A) (A) (A) (A) (A) (A) (A)
                 (A) (A) (A) (A) (A) (A) (A) (A) (A) (A) (A) (A)
                 (A) (A) (A) (A) (A) (A) (A) (A) (A) (A) (A) (A)
                 (A) (A) (A) (A) (A) (A) (A) (A) (A) (A) (A) (A)
                 (A) (A) (A) (A) (A) (A) (A) (A) (A) (A) (A) (A)
                 (A) (A) (A) (A) (A) (A) (A) (A) (A) (A) (A) (A)
                 (A) (A) (A) (A) (A) (A) (A) (A) (A) (A) (A) (A)
                 (A) (A) (A) (A) (A) (A) (A) (A) (A) (A) (A) (A)
                 (A) (A) (A) (A) (A) (A) (A) (A) (A) (A) (A) (A)
                 (A) (A) (A) (A) (A) (A) (A) (A) (A) (A) (A) (A)
                 (A) (A) (A) (A) (A) (A) (A) (A) (A) (A) (A) (A)
                 (A) (A) (A) (A) (A) (A) (A) (A) (A) (A) (A) (A)
                 (A) (A) (A) (A) (A) (A) (A) (A) (A) (A) (A) (A)
                 (A) (A) (A) (A) (A) (A) (A) (A) (A) (A) (A) (A)
                 (A) (A) (A) (A) (A) (A) (A) (A) (A) (A) (A) (A)
                 (A) (A) (A) (A) (A) (A) (A) (A)
 The electronic state is 1-A.
 Alpha  occ. eigenvalues --  -19.55311 -19.55062 -19.53907 -19.51350 -14.73919
 Alpha  occ. eigenvalues --  -14.73515 -14.72298 -14.70901 -10.63739 -10.63396
 Alpha  occ. eigenvalues --  -10.62200 -10.60198 -10.55712 -10.55085 -10.53518
 Alpha  occ. eigenvalues --  -10.53458 -10.48261  -1.17125  -1.16584  -1.15436
 Alpha  occ. eigenvalues --   -1.13171  -1.03199  -1.03047  -1.02036  -1.00051
 Alpha  occ. eigenvalues --   -0.85977  -0.83613  -0.81302  -0.78630  -0.76364
 Alpha  occ. eigenvalues --   -0.68181  -0.67057  -0.66302  -0.64819  -0.62672
 Alpha  occ. eigenvalues --   -0.58701  -0.56531  -0.55170  -0.54851  -0.54781
 Alpha  occ. eigenvalues --   -0.53564  -0.52884  -0.52368  -0.51789  -0.51339
 Alpha  occ. eigenvalues --   -0.50460  -0.48806  -0.48031  -0.46881  -0.46144
 Alpha  occ. eigenvalues --   -0.46048  -0.45280  -0.44659  -0.43904  -0.43459
 Alpha  occ. eigenvalues --   -0.42310  -0.39619  -0.34146  -0.33212  -0.33089
 Alpha  occ. eigenvalues --   -0.32123  -0.31959  -0.31002  -0.29470  -0.29237
 Alpha virt. eigenvalues --    0.01782   0.01948   0.02162   0.03219   0.03775
 Alpha virt. eigenvalues --    0.04218   0.04928   0.04938   0.05293   0.05715
 Alpha virt. eigenvalues --    0.06600   0.07286   0.07409   0.07908   0.08737
 Alpha virt. eigenvalues --    0.08967   0.09396   0.09613   0.10546   0.10869
 Alpha virt. eigenvalues --    0.11255   0.11802   0.12069   0.12480   0.12599
 Alpha virt. eigenvalues --    0.13646   0.14418   0.14558   0.15332   0.15559
 Alpha virt. eigenvalues --    0.15651   0.16138   0.16684   0.16711   0.17605
 Alpha virt. eigenvalues --    0.17995   0.18731   0.19630   0.20083   0.20552
 Alpha virt. eigenvalues --    0.20634   0.21424   0.21485   0.22007   0.22428
 Alpha virt. eigenvalues --    0.22902   0.23143   0.23435   0.23885   0.24746
 Alpha virt. eigenvalues --    0.25123   0.25469   0.25671   0.26180   0.26323
 Alpha virt. eigenvalues --    0.26675   0.27135   0.27227   0.27687   0.28023
 Alpha virt. eigenvalues --    0.28166   0.29082   0.29423   0.29557   0.29977
 Alpha virt. eigenvalues --    0.30354   0.30563   0.31742   0.31989   0.32520
 Alpha virt. eigenvalues --    0.32622   0.32887   0.33445   0.34120   0.34745
 Alpha virt. eigenvalues --    0.35288   0.35786   0.35851   0.36135   0.37101
 Alpha virt. eigenvalues --    0.37688   0.38050   0.38553   0.39421   0.39948
 Alpha virt. eigenvalues --    0.40534   0.41219   0.42245   0.43449   0.44167
 Alpha virt. eigenvalues --    0.45035   0.45321   0.46389   0.47287   0.48263
 Alpha virt. eigenvalues --    0.48897   0.49995   0.51215   0.53182   0.53552
 Alpha virt. eigenvalues --    0.54430   0.55916   0.56907   0.59024   0.68532
 Alpha virt. eigenvalues --    0.69826   0.70610   0.70941   0.71765   0.71774
 Alpha virt. eigenvalues --    0.72733   0.73467   0.74740   0.74763   0.77188
 Alpha virt. eigenvalues --    0.78679   0.79337   0.79886   0.80901   0.83150
 Alpha virt. eigenvalues --    0.84506   0.86398   0.86984   0.88001   0.89480
 Alpha virt. eigenvalues --    0.91540   0.92792   0.94645   0.97003   0.98888
 Alpha virt. eigenvalues --    1.00488   1.00506   1.01883   1.03305   1.03351
 Alpha virt. eigenvalues --    1.06889   1.10385   1.10783   1.11220   1.11669
 Alpha virt. eigenvalues --    1.12315   1.13925   1.15040   1.17102   1.18104
 Alpha virt. eigenvalues --    1.18873   1.19527   1.20311   1.20869   1.21991
 Alpha virt. eigenvalues --    1.24297   1.25797   1.27824   1.31696   1.33986
 Alpha virt. eigenvalues --    1.34119   1.35299   1.35387   1.36365   1.36567
 Alpha virt. eigenvalues --    1.36868   1.38252   1.40461   1.42038   1.42612
 Alpha virt. eigenvalues --    1.44218   1.46365   1.47391   1.48034   1.51167
 Alpha virt. eigenvalues --    1.52049   1.53556   1.55104   1.56359   1.61195
 Alpha virt. eigenvalues --    1.62550   1.63421   1.64716   1.66612   1.68811
 Alpha virt. eigenvalues --    1.74063   1.86394   1.89481   1.91920   2.11001
 Alpha virt. eigenvalues --    2.12816   2.14069   2.15115
          Condensed to atoms (all electrons):
               1          2          3          4          5          6
     1  C    6.123595   0.421639  -0.474527  -0.068184  -0.061321  -0.068184
     2  O    0.421639   8.495070  -0.091516  -0.005114   0.006384  -0.005114
     3  C   -0.474527  -0.091516   6.623401   0.424907   0.379092   0.424907
     4  H   -0.068184  -0.005114   0.424907   0.466683  -0.026405  -0.021456
     5  H   -0.061321   0.006384   0.379092  -0.026405   0.529780  -0.026405
     6  H   -0.068184  -0.005114   0.424907  -0.021456  -0.026405   0.466683
     7  N   -0.223055  -0.237128  -0.328055   0.002873   0.009014   0.002873
     8  C   -0.953021  -0.106873  -0.424269  -0.005620  -0.000659  -0.005620
     9  C    0.540111   0.082220   0.223476  -0.000870  -0.000440  -0.000870
    10  O    0.013173  -0.000649   0.001528   0.000009  -0.000051   0.000009
    11  H    0.021798   0.004487   0.015454   0.000034   0.001213   0.000034
    12  H    0.006205   0.001769  -0.000158  -0.000010  -0.000003   0.000028
    13  H    0.006205   0.001769  -0.000158   0.000028  -0.000003  -0.000010
    14  N    0.037483  -0.002919   0.006164  -0.000006   0.000052  -0.000006
    15  C    0.011696  -0.001119   0.008781   0.000003   0.000051   0.000003
    16  C   -0.012972   0.001106  -0.002315   0.000000  -0.000012   0.000000
    17  O    0.000650  -0.000012   0.000030   0.000000   0.000000   0.000000
    18  H   -0.000939   0.000045  -0.000111   0.000000   0.000000   0.000000
    19  H   -0.000054   0.000000  -0.000005   0.000000   0.000000   0.000000
    20  H   -0.000054   0.000000  -0.000005   0.000000   0.000000   0.000000
    21  N   -0.000214   0.000000  -0.000018   0.000000   0.000000   0.000000
    22  C    0.000110   0.000004   0.000013   0.000000   0.000000   0.000000
    23  C    0.000040   0.000000   0.000003   0.000000   0.000000   0.000000
    24  O    0.000000   0.000000   0.000000   0.000000   0.000000   0.000000
    25  H    0.000001   0.000000   0.000000   0.000000   0.000000   0.000000
    26  H    0.000000   0.000000   0.000000   0.000000   0.000000   0.000000
    27  H    0.000000   0.000000   0.000000   0.000000   0.000000   0.000000
    28  N    0.000000   0.000000   0.000000   0.000000   0.000000   0.000000
    29  C    0.000000   0.000000   0.000000   0.000000   0.000000   0.000000
    30  H    0.000000   0.000000   0.000000   0.000000   0.000000   0.000000
    31  H    0.000000   0.000000   0.000000   0.000000   0.000000   0.000000
    32  H    0.000000   0.000000   0.000000   0.000000   0.000000   0.000000
    33  H    0.000000   0.000000   0.000000   0.000000   0.000000   0.000000
               7          8          9         10         11         12
     1  C   -0.223055  -0.953021   0.540111   0.013173   0.021798   0.006205
     2  O   -0.237128  -0.106873   0.082220  -0.000649   0.004487   0.001769
     3  C   -0.328055  -0.424269   0.223476   0.001528   0.015454  -0.000158
     4  H    0.002873  -0.005620  -0.000870   0.000009   0.000034  -0.000010
     5  H    0.009014  -0.000659  -0.000440  -0.000051   0.001213  -0.000003
     6  H    0.002873  -0.005620  -0.000870   0.000009   0.000034   0.000028
     7  N    8.010410   0.393683  -0.235777   0.018734   0.260508  -0.050094
     8  C    0.393683  12.471618  -4.760511   0.242691  -0.102813   0.372189
     9  C   -0.235777  -4.760511   9.929273   0.060909   0.044790  -0.038702
    10  O    0.018734   0.242691   0.060909   8.505799   0.012127   0.000248
    11  H    0.260508  -0.102813   0.044790   0.012127   0.295849   0.002077
    12  H   -0.050094   0.372189  -0.038702   0.000248   0.002077   0.478016
    13  H   -0.050094   0.372189  -0.038702   0.000248   0.002077  -0.034970
    14  N    0.009235  -0.712526   0.121698  -0.258399   0.007566   0.013720
    15  C   -0.031745   0.040209  -1.969569  -0.027727   0.002788   0.000210
    16  C    0.000063  -0.051600   0.849851   0.022418  -0.000208   0.000174
    17  O    0.000278  -0.001643   0.029036  -0.000522   0.000004   0.000081
    18  H    0.001023   0.003129   0.036279   0.002789  -0.000013   0.000129
    19  H    0.000014  -0.003105   0.011688   0.000968  -0.000001  -0.000012
    20  H    0.000014  -0.003105   0.011688   0.000968  -0.000001   0.000027
    21  N    0.000066  -0.007883   0.097592  -0.000916   0.000000   0.000006
    22  C   -0.000118   0.011309   0.010737  -0.000184   0.000004   0.000033
    23  C   -0.000027  -0.001917  -0.034005   0.000414   0.000000  -0.000001
    24  O    0.000000  -0.000033   0.000939  -0.000006   0.000000   0.000000
    25  H    0.000000   0.000178  -0.001219   0.000014   0.000000   0.000000
    26  H    0.000000   0.000019  -0.000099   0.000000   0.000000   0.000000
    27  H    0.000000   0.000019  -0.000099   0.000000   0.000000   0.000000
    28  N    0.000000   0.000003  -0.000266   0.000000   0.000000   0.000000
    29  C    0.000000  -0.000002  -0.000109   0.000000   0.000000   0.000000
    30  H    0.000000   0.000000   0.000002   0.000000   0.000000   0.000000
    31  H    0.000000   0.000000   0.000000   0.000000   0.000000   0.000000
    32  H    0.000000   0.000000   0.000000   0.000000   0.000000   0.000000
    33  H    0.000000   0.000000   0.000000   0.000000   0.000000   0.000000
              13         14         15         16         17         18
     1  C    0.006205   0.037483   0.011696  -0.012972   0.000650  -0.000939
     2  O    0.001769  -0.002919  -0.001119   0.001106  -0.000012   0.000045
     3  C   -0.000158   0.006164   0.008781  -0.002315   0.000030  -0.000111
     4  H    0.000028  -0.000006   0.000003   0.000000   0.000000   0.000000
     5  H   -0.000003   0.000052   0.000051  -0.000012   0.000000   0.000000
     6  H   -0.000010  -0.000006   0.000003   0.000000   0.000000   0.000000
     7  N   -0.050094   0.009235  -0.031745   0.000063   0.000278   0.001023
     8  C    0.372189  -0.712526   0.040209  -0.051600  -0.001643   0.003129
     9  C   -0.038702   0.121698  -1.969569   0.849851   0.029036   0.036279
    10  O    0.000248  -0.258399  -0.027727   0.022418  -0.000522   0.002789
    11  H    0.002077   0.007566   0.002788  -0.000208   0.000004  -0.000013
    12  H   -0.034970   0.013720   0.000210   0.000174   0.000081   0.000129
    13  H    0.478016   0.013720   0.000210   0.000174   0.000081   0.000129
    14  N    0.013720   8.025789   0.281817  -0.107561   0.020466   0.268243
    15  C    0.000210   0.281817  12.322631  -3.767684   0.168707  -0.114617
    16  C    0.000174  -0.107561  -3.767684   8.587681   0.127575   0.034281
    17  O    0.000081   0.020466   0.168707   0.127575   8.508154   0.019478
    18  H    0.000129   0.268243  -0.114617   0.034281   0.019478   0.286200
    19  H    0.000027  -0.045963   0.348796  -0.019189   0.000174   0.002224
    20  H   -0.000012  -0.045963   0.348796  -0.019189   0.000174   0.002224
    21  N    0.000006   0.001682  -0.788400   0.281662  -0.287723   0.008638
    22  C    0.000033  -0.038122  -0.107193  -2.041074  -0.005196   0.004155
    23  C   -0.000001   0.000833   0.073987   0.948341   0.007689  -0.001022
    24  O    0.000000   0.000292  -0.003399   0.031325  -0.000717   0.000005
    25  H    0.000000   0.001428   0.010022   0.023789   0.002527  -0.000014
    26  H    0.000000  -0.000081  -0.003787   0.001819   0.001239  -0.000002
    27  H    0.000000  -0.000081  -0.003787   0.001819   0.001239  -0.000002
    28  N    0.000000  -0.000097  -0.005304   0.067157  -0.000595  -0.000001
    29  C    0.000000  -0.000005  -0.001541   0.023210  -0.000367   0.000000
    30  H    0.000000   0.000000   0.000930   0.000911   0.000054   0.000000
    31  H    0.000000   0.000000   0.000077  -0.000573   0.000001   0.000000
    32  H    0.000000   0.000000   0.000007   0.000072   0.000000   0.000000
    33  H    0.000000   0.000000   0.000007   0.000072   0.000000   0.000000
              19         20         21         22         23         24
     1  C   -0.000054  -0.000054  -0.000214   0.000110   0.000040   0.000000
     2  O    0.000000   0.000000   0.000000   0.000004   0.000000   0.000000
     3  C   -0.000005  -0.000005  -0.000018   0.000013   0.000003   0.000000
     4  H    0.000000   0.000000   0.000000   0.000000   0.000000   0.000000
     5  H    0.000000   0.000000   0.000000   0.000000   0.000000   0.000000
     6  H    0.000000   0.000000   0.000000   0.000000   0.000000   0.000000
     7  N    0.000014   0.000014   0.000066  -0.000118  -0.000027   0.000000
     8  C   -0.003105  -0.003105  -0.007883   0.011309  -0.001917  -0.000033
     9  C    0.011688   0.011688   0.097592   0.010737  -0.034005   0.000939
    10  O    0.000968   0.000968  -0.000916  -0.000184   0.000414  -0.000006
    11  H   -0.000001  -0.000001   0.000000   0.000004   0.000000   0.000000
    12  H   -0.000012   0.000027   0.000006   0.000033  -0.000001   0.000000
    13  H    0.000027  -0.000012   0.000006   0.000033  -0.000001   0.000000
    14  N   -0.045963  -0.045963   0.001682  -0.038122   0.000833   0.000292
    15  C    0.348796   0.348796  -0.788400  -0.107193   0.073987  -0.003399
    16  C   -0.019189  -0.019189   0.281662  -2.041074   0.948341   0.031325
    17  O    0.000174   0.000174  -0.287723  -0.005196   0.007689  -0.000717
    18  H    0.002224   0.002224   0.008638   0.004155  -0.001022   0.000005
    19  H    0.474625  -0.033837   0.012098   0.000515  -0.001240   0.000068
    20  H   -0.033837   0.474625   0.012098   0.000515  -0.001240   0.000068
    21  N    0.012098   0.012098   7.995314   0.263507  -0.210620   0.015033
    22  C    0.000515   0.000515   0.263507  13.532679  -4.444250   0.049815
    23  C   -0.001240  -0.001240  -0.210620  -4.444250   8.185697   0.261075
    24  O    0.000068   0.000068   0.015033   0.049815   0.261075   8.507549
    25  H    0.000101   0.000101   0.272509  -0.111329   0.040971   0.017881
    26  H   -0.000012   0.000025  -0.046238   0.320209   0.012230   0.000357
    27  H    0.000025  -0.000012  -0.046238   0.320209   0.012230   0.000357
    28  N    0.000001   0.000001   0.004402  -0.887450   0.440004  -0.249111
    29  C    0.000005   0.000005   0.000510  -0.294622  -0.028826  -0.050321
    30  H    0.000000   0.000000   0.001711   0.024937  -0.020797   0.005582
    31  H    0.000000   0.000000  -0.000217  -0.008458  -0.008624   0.006155
    32  H    0.000000   0.000000  -0.000079   0.008793  -0.002623   0.001039
    33  H    0.000000   0.000000  -0.000079   0.008793  -0.002623   0.001039
              25         26         27         28         29         30
     1  C    0.000001   0.000000   0.000000   0.000000   0.000000   0.000000
     2  O    0.000000   0.000000   0.000000   0.000000   0.000000   0.000000
     3  C    0.000000   0.000000   0.000000   0.000000   0.000000   0.000000
     4  H    0.000000   0.000000   0.000000   0.000000   0.000000   0.000000
     5  H    0.000000   0.000000   0.000000   0.000000   0.000000   0.000000
     6  H    0.000000   0.000000   0.000000   0.000000   0.000000   0.000000
     7  N    0.000000   0.000000   0.000000   0.000000   0.000000   0.000000
     8  C    0.000178   0.000019   0.000019   0.000003  -0.000002   0.000000
     9  C   -0.001219  -0.000099  -0.000099  -0.000266  -0.000109   0.000002
    10  O    0.000014   0.000000   0.000000   0.000000   0.000000   0.000000
    11  H    0.000000   0.000000   0.000000   0.000000   0.000000   0.000000
    12  H    0.000000   0.000000   0.000000   0.000000   0.000000   0.000000
    13  H    0.000000   0.000000   0.000000   0.000000   0.000000   0.000000
    14  N    0.001428  -0.000081  -0.000081  -0.000097  -0.000005   0.000000
    15  C    0.010022  -0.003787  -0.003787  -0.005304  -0.001541   0.000930
    16  C    0.023789   0.001819   0.001819   0.067157   0.023210   0.000911
    17  O    0.002527   0.001239   0.001239  -0.000595  -0.000367   0.000054
    18  H   -0.000014  -0.000002  -0.000002  -0.000001   0.000000   0.000000
    19  H    0.000101  -0.000012   0.000025   0.000001   0.000005   0.000000
    20  H    0.000101   0.000025  -0.000012   0.000001   0.000005   0.000000
    21  N    0.272509  -0.046238  -0.046238   0.004402   0.000510   0.001711
    22  C   -0.111329   0.320209   0.320209  -0.887450  -0.294622   0.024937
    23  C    0.040971   0.012230   0.012230   0.440004  -0.028826  -0.020797
    24  O    0.017881   0.000357   0.000357  -0.249111  -0.050321   0.005582
    25  H    0.284900   0.002289   0.002289   0.005976   0.002280  -0.000018
    26  H    0.002289   0.479197  -0.035399   0.014310   0.004090  -0.000219
    27  H    0.002289  -0.035399   0.479197   0.014310   0.004090  -0.000219
    28  N    0.005976   0.014310   0.014310   7.841961   0.204308   0.278406
    29  C    0.002280   0.004090   0.004090   0.204308   5.387859  -0.022600
    30  H   -0.000018  -0.000219  -0.000219   0.278406  -0.022600   0.348727
    31  H   -0.000001  -0.000010  -0.000010  -0.056566   0.423135   0.002687
    32  H    0.000000  -0.000008   0.000019  -0.050382   0.385456  -0.001120
    33  H    0.000000   0.000019  -0.000008  -0.050382   0.385456  -0.001120
              31         32         33
     1  C    0.000000   0.000000   0.000000
     2  O    0.000000   0.000000   0.000000
     3  C    0.000000   0.000000   0.000000
     4  H    0.000000   0.000000   0.000000
     5  H    0.000000   0.000000   0.000000
     6  H    0.000000   0.000000   0.000000
     7  N    0.000000   0.000000   0.000000
     8  C    0.000000   0.000000   0.000000
     9  C    0.000000   0.000000   0.000000
    10  O    0.000000   0.000000   0.000000
    11  H    0.000000   0.000000   0.000000
    12  H    0.000000   0.000000   0.000000
    13  H    0.000000   0.000000   0.000000
    14  N    0.000000   0.000000   0.000000
    15  C    0.000077   0.000007   0.000007
    16  C   -0.000573   0.000072   0.000072
    17  O    0.000001   0.000000   0.000000
    18  H    0.000000   0.000000   0.000000
    19  H    0.000000   0.000000   0.000000
    20  H    0.000000   0.000000   0.000000
    21  N   -0.000217  -0.000079  -0.000079
    22  C   -0.008458   0.008793   0.008793
    23  C   -0.008624  -0.002623  -0.002623
    24  O    0.006155   0.001039   0.001039
    25  H   -0.000001   0.000000   0.000000
    26  H   -0.000010  -0.000008   0.000019
    27  H   -0.000010   0.000019  -0.000008
    28  N   -0.056566  -0.050382  -0.050382
    29  C    0.423135   0.385456   0.385456
    30  H    0.002687  -0.001120  -0.001120
    31  H    0.438626  -0.022595  -0.022595
    32  H   -0.022595   0.510087  -0.035042
    33  H   -0.022595  -0.035042   0.510087
 Mulliken charges:
               1
     1  C    0.679817
     2  O   -0.564050
     3  C   -0.786619
     4  H    0.233128
     5  H    0.189714
     6  H    0.233128
     7  N   -0.552694
     8  C   -0.766035
     9  C    1.030950
    10  O   -0.594591
    11  H    0.432226
    12  H    0.249039
    13  H    0.249039
    14  N   -0.598457
    15  C   -0.793856
    16  C    1.018874
    17  O   -0.590864
    18  H    0.447748
    19  H    0.252089
    20  H    0.252089
    21  N   -0.578208
    22  C   -0.618377
    23  C    0.774303
    24  O   -0.594993
    25  H    0.445326
    26  H    0.250052
    27  H    0.250052
    28  N   -0.570684
    29  C   -0.422011
    30  H    0.382145
    31  H    0.248970
    32  H    0.206375
    33  H    0.206374
 Sum of Mulliken charges =   0.00000
 Mulliken charges with hydrogens summed into heavy atoms:
               1
     1  C    0.679817
     2  O   -0.564050
     3  C   -0.130649
     7  N   -0.120469
     8  C   -0.267958
     9  C    1.030950
    10  O   -0.594591
    14  N   -0.150708
    15  C   -0.289677
    16  C    1.018874
    17  O   -0.590864
    21  N   -0.132882
    22  C   -0.118273
    23  C    0.774303
    24  O   -0.594993
    28  N   -0.188539
    29  C    0.239708
 Electronic spatial extent (au):  <R**2>=          10764.0148
 Charge=              0.0000 electrons
 Dipole moment (field-independent basis, Debye):
    X=              7.1212    Y=             -0.2840    Z=              0.0000  Tot=              7.1269
 Quadrupole moment (field-independent basis, Debye-Ang):
   XX=            -71.2299   YY=           -118.2020   ZZ=           -101.4973
   XY=            -33.0922   XZ=              0.0000   YZ=              0.0000
 Traceless Quadrupole moment (field-independent basis, Debye-Ang):
   XX=             25.7465   YY=            -21.2256   ZZ=             -4.5209
   XY=            -33.0922   XZ=              0.0000   YZ=              0.0000
 Octapole moment (field-independent basis, Debye-Ang**2):
  XXX=            336.2253  YYY=             -1.3502  ZZZ=              0.0000  XYY=             45.8640
  XXY=             12.8959  XXZ=              0.0001  XZZ=             -1.1764  YZZ=             -1.9154
  YYZ=              0.0000  XYZ=              0.0001
 Hexadecapole moment (field-independent basis, Debye-Ang**3):
 XXXX=         -10445.7037 YYYY=           -665.1740 ZZZZ=           -131.7488 XXXY=          -1512.1841
 XXXZ=             -0.0004 YYYX=           -105.2121 YYYZ=              0.0000 ZZZX=              0.0001
 ZZZY=              0.0000 XXYY=          -2617.8577 XXZZ=          -2239.8710 YYZZ=           -121.2558
 XXYZ=             -0.0002 YYXZ=             -0.0001 ZZXY=              6.1587
 N-N= 1.116174155338D+03 E-N=-4.268266097649D+03  KE= 8.662564506813D+02
 No NMR shielding tensors so no spin-rotation constants.
 Leave Link  601 at Fri Feb 17 11:44:04 2023, MaxMem=    33554432 cpu:         1.6
 (Enter /hits/basement/its/doserbd/software/gaussian/g09d1/g09/l701.exe)
 Compute integral first derivatives.
 ... and contract with generalized density number  0.
 Leave Link  701 at Fri Feb 17 11:44:04 2023, MaxMem=    33554432 cpu:         1.3
 (Enter /hits/basement/its/doserbd/software/gaussian/g09d1/g09/l702.exe)
 L702 exits ... SP integral derivatives will be done elsewhere.
 Leave Link  702 at Fri Feb 17 11:44:05 2023, MaxMem=    33554432 cpu:         0.1
 (Enter /hits/basement/its/doserbd/software/gaussian/g09d1/g09/l703.exe)
 Compute integral first derivatives, UseDBF=F ICtDFT=           0.
 Integral derivatives from FoFJK, PRISM(SPDF).
 Calling FoFJK, ICntrl=      2127 FMM=F ISym2X=0 I1Cent= 0 IOpClX= 0 NMat=1 NMatS=1 NMatT=0.
 FoFJK:  IHMeth= 1 ICntrl=    2127 DoSepK=F KAlg= 0 I1Cent=   0 FoldK=F
 IRaf=         0 NMat=   1 IRICut=       1 DoRegI=T DoRafI=F ISym2E= 0.
 FoFCou: FMM=F IPFlag=           0 FMFlag=      100000 FMFlg1=         800
         NFxFlg=           0 DoJE=F BraDBF=F KetDBF=F FulRan=T
         wScrn=  0.000000 ICntrl=    2127 IOpCl=  0 I1Cent=           0 NGrid=           0
         NMat0=    1 NMatS0=      1 NMatT0=    0 NMatD0=    1 NMtDS0=    0 NMtDT0=    0
 Symmetry not used in FoFCou.
 Leave Link  703 at Fri Feb 17 11:44:09 2023, MaxMem=    33554432 cpu:        34.3
 (Enter /hits/basement/its/doserbd/software/gaussian/g09d1/g09/l716.exe)
 Dipole        = 2.80169451D+00-1.11717713D-01 8.07645104D-07
 ***** Axes restored to original set *****
 -------------------------------------------------------------------
 Center     Atomic                   Forces (Hartrees/Bohr)
 Number     Number              X              Y              Z
 -------------------------------------------------------------------
      1        6           0.000010621    0.000000006   -0.000020640
      2        8           0.000003493   -0.000000004   -0.000002639
      3        6          -0.022361842    0.000000041    0.000653240
      4        1          -0.000017275    0.000022867   -0.000004257
      5        1          -0.000014553   -0.000000051    0.000011967
      6        1          -0.000017271   -0.000022859   -0.000004192
      7        7           0.000004332    0.000000002    0.000006212
      8        6           0.000000113    0.000000015    0.000000538
      9        6           0.000003639   -0.000000123    0.000004451
     10        8           0.000010388    0.000000065    0.000003093
     11        1          -0.000017594    0.000000003   -0.000008530
     12        1          -0.000000044   -0.000000025   -0.000000563
     13        1          -0.000000016    0.000000030   -0.000000553
     14        7          -0.000010331    0.000000045    0.000004807
     15        6           0.000000778    0.000000005    0.000002984
     16        6          -0.000005254   -0.000000011    0.000004435
     17        8          -0.000028072    0.000000001    0.000007449
     18        1           0.000043481    0.000000019   -0.000018379
     19        1          -0.000000166    0.000000092    0.000000214
     20        1          -0.000000151   -0.000000102    0.000000214
     21        7          -0.000000397    0.000000001    0.000002278
     22        6          -0.000000547   -0.000000069   -0.000002215
     23        6           0.000001334    0.000000061    0.000000704
     24        8           0.000002607   -0.000000007    0.000002011
     25        1          -0.000001276   -0.000000001   -0.000000340
     26        1           0.000000221   -0.000000096    0.000000821
     27        1           0.000000284    0.000000112    0.000000846
     28        7          -0.000010557    0.000000001   -0.000011436
     29        6           0.022355146   -0.000000043   -0.000643129
     30        1           0.000000284   -0.000000003    0.000001964
     31        1           0.000014615    0.000000000    0.000012766
     32        1           0.000017016    0.000026672   -0.000002061
     33        1           0.000016995   -0.000026644   -0.000002059
 -------------------------------------------------------------------
 Cartesian Forces:  Max     0.022361842 RMS     0.003179248
 -----------------------------------------------------------------------------------------------
                       Internal Coordinate Forces (Hartree/Bohr or radian)
  Cent   Atom   N1       Length/X         N2         Alpha/Y        N3         Beta/Z          J
 -----------------------------------------------------------------------------------------------
      1  C 
      2  O        1  -0.000003(     1)
      3  C        1  -0.019937(     2)      2   0.030188(    33)
      4  H        3  -0.000029(     3)      1  -0.000010(    34)      2   0.000000(    64)     0
      5  H        3  -0.000010(     4)      1  -0.000032(    35)      4   0.000000(    65)     0
      6  H        3  -0.000029(     5)      1  -0.000010(    36)      4   0.000003(    66)     0
      7  N        1  -0.019125(     6)      2   0.029856(    37)      3   0.000000(    67)     0
      8  C        7  -0.019700(     7)      1  -0.000508(    38)      2   0.000000(    68)     0
      9  C        8  -0.017434(     8)      7  -0.029308(    39)      1   0.000000(    69)     0
     10  O        9  -0.000002(     9)      8  -0.000025(    40)      7   0.000000(    70)     0
     11  H        7   0.000010(    10)      1   0.000033(    41)      8   0.000000(    71)     0
     12  H        8   0.000000(    11)      7   0.000000(    42)      9   0.000001(    72)     0
     13  H        8   0.000000(    12)      7   0.000000(    43)      9  -0.000001(    73)     0
     14  N        9  -0.020408(    13)      8  -0.012035(    44)     10   0.000000(    74)     0
     15  C       14  -0.018897(    14)      9  -0.012013(    45)      8   0.000000(    75)     0
     16  C       15  -0.017774(    15)     14  -0.021328(    46)      9   0.000000(    76)     0
     17  O       16   0.000003(    16)     15   0.000068(    47)     14   0.000000(    77)     0
     18  H       14  -0.000023(    17)      9  -0.000079(    48)     15   0.000000(    78)     0
     19  H       15   0.000000(    18)     14   0.000000(    49)     16   0.000000(    79)     0
     20  H       15   0.000000(    19)     14   0.000000(    50)     16   0.000000(    80)     0
     21  N       16  -0.020440(    20)     15  -0.018539(    51)     17   0.000000(    81)     0
     22  C       21  -0.018462(    21)     16  -0.005211(    52)     15   0.000000(    82)     0
     23  C       22  -0.018688(    22)     21  -0.030127(    53)     16   0.000000(    83)     0
     24  O       23  -0.000002(    23)     22  -0.000006(    54)     21   0.000000(    84)     0
     25  H       21   0.000001(    24)     16   0.000002(    55)     22   0.000000(    85)     0
     26  H       22   0.000000(    25)     21   0.000000(    56)     23  -0.000001(    86)     0
     27  H       22   0.000000(    26)     21   0.000000(    57)     23   0.000002(    87)     0
     28  N       23  -0.019185(    27)     22  -0.006296(    58)     24   0.000000(    88)     0
     29  C       28  -0.020782(    28)     23  -0.023728(    59)     22   0.000000(    89)     0
     30  H       28   0.000002(    29)     23   0.000000(    60)     29   0.000000(    90)     0
     31  H       29  -0.000012(    30)     28  -0.000031(    61)     23   0.000000(    91)     0
     32  H       29  -0.000031(    31)     28  -0.000011(    62)     31   0.000012(    92)     0
     33  H       29  -0.000031(    32)     28  -0.000011(    63)     31  -0.000012(    93)     0
 -----------------------------------------------------------------------------------------------
 Internal  Forces:  Max     0.030188072 RMS     0.010233696
 Leave Link  716 at Fri Feb 17 11:44:09 2023, MaxMem=    33554432 cpu:         0.4
 (Enter /hits/basement/its/doserbd/software/gaussian/g09d1/g09/l103.exe)

 GradGradGradGradGradGradGradGradGradGradGradGradGradGradGradGradGradGrad
 Berny optimization.
 Search for a local minimum.
 Step number   1 out of a maximum of    2
 All quantities printed in internal units (Hartrees-Bohrs-Radians)
 Second derivative matrix not updated -- first step.
 ITU=  0
     Eigenvalues ---    0.01157   0.01205   0.01228   0.01242   0.02019
     Eigenvalues ---    0.02623   0.02715   0.02802   0.03412   0.04066
     Eigenvalues ---    0.04133   0.04204   0.06264   0.06549   0.06689
     Eigenvalues ---    0.06931   0.08082   0.08765   0.09347   0.09525
     Eigenvalues ---    0.09646   0.13274   0.13442   0.15108   0.15705
     Eigenvalues ---    0.16049   0.16958   0.17233   0.17467   0.17477
     Eigenvalues ---    0.19879   0.19879   0.19879   0.19880   0.22903
     Eigenvalues ---    0.23085   0.24214   0.24635   0.24771   0.25000
     Eigenvalues ---    0.25000   0.25000   0.25001   0.26910   0.27115
     Eigenvalues ---    0.27176   0.27550   0.32101   0.32611   0.32891
     Eigenvalues ---    0.33647   0.33647   0.33657   0.33657   0.33677
     Eigenvalues ---    0.33677   0.34111   0.34174   0.34174   0.34176
     Eigenvalues ---    0.34176   0.34343   0.35215   0.35343   0.35403
     Eigenvalues ---    0.35889   0.35894   0.35992   0.39197   0.39769
     Eigenvalues ---    0.42906   0.43088   0.43197   0.45127   0.45201
     Eigenvalues ---    0.45587   0.45739   0.49452   0.50340   0.50623
     Eigenvalues ---    0.50994   0.53121   0.53121   0.53121   0.53122
     Eigenvalues ---    0.75000   0.75000   0.75000   0.75001   0.84026
     Eigenvalues ---    0.84271   0.84696   0.86077
 Angle between quadratic step and forces=  24.59 degrees.
 Linear search not attempted -- first point.
 Variable       Old X    -DE/DX   Delta X   Delta X   Delta X     New X
                                 (Linear)    (Quad)   (Total)
    R2        2.35815   0.00000   0.00000   0.00000   0.00000   2.35814
    R3        2.94116  -0.01994   0.00000  -0.07353  -0.07353   2.86763
    R4        2.07037  -0.00003   0.00000  -0.00008  -0.00008   2.07029
    R5        2.07143  -0.00001   0.00000  -0.00003  -0.00003   2.07140
    R6        2.07037  -0.00003   0.00000  -0.00008  -0.00008   2.07029
    R7        2.60422  -0.01913   0.00000  -0.03867  -0.03867   2.56555
    R8        2.78628  -0.01970   0.00000  -0.05594  -0.05594   2.73033
    R9        2.93132  -0.01743   0.00000  -0.06328  -0.06328   2.86804
   R10        2.35478   0.00000   0.00000   0.00000   0.00000   2.35478
   R11        1.91299   0.00001   0.00000   0.00002   0.00002   1.91301
   R12        2.07930   0.00000   0.00000   0.00000   0.00000   2.07930
   R13        2.07930   0.00000   0.00000   0.00000   0.00000   2.07930
   R14        2.59242  -0.02041   0.00000  -0.04031  -0.04031   2.55210
   R15        2.78422  -0.01890   0.00000  -0.05347  -0.05347   2.73076
   R16        2.93976  -0.01777   0.00000  -0.06540  -0.06540   2.87435
   R17        2.35691   0.00000   0.00000   0.00000   0.00000   2.35692
   R18        1.91828  -0.00002   0.00000  -0.00005  -0.00005   1.91823
   R19        2.07878   0.00000   0.00000   0.00000   0.00000   2.07878
   R20        2.07878   0.00000   0.00000   0.00000   0.00000   2.07878
   R21        2.58876  -0.02044   0.00000  -0.04008  -0.04008   2.54867
   R22        2.78326  -0.01846   0.00000  -0.05215  -0.05215   2.73111
   R23        2.94585  -0.01869   0.00000  -0.06945  -0.06945   2.87641
   R24        2.34795   0.00000   0.00000   0.00000   0.00000   2.34795
   R25        1.91743   0.00000   0.00000   0.00000   0.00000   1.91743
   R26        2.07913   0.00000   0.00000   0.00000   0.00000   2.07914
   R27        2.07913   0.00000   0.00000   0.00000   0.00000   2.07914
   R28        2.59523  -0.01918   0.00000  -0.03811  -0.03811   2.55712
   R29        2.82544  -0.02078   0.00000  -0.06318  -0.06318   2.76225
   R30        1.91127   0.00000   0.00000   0.00000   0.00000   1.91127
   R31        2.06755  -0.00001   0.00000  -0.00004  -0.00004   2.06751
   R32        2.07034  -0.00003   0.00000  -0.00009  -0.00009   2.07025
   R33        2.07034  -0.00003   0.00000  -0.00009  -0.00009   2.07025
    A3        2.07525   0.03019   0.00000   0.04070   0.04070   2.11595
    A4        1.87870  -0.00001   0.00000  -0.00001  -0.00001   1.87869
    A5        1.97542  -0.00003   0.00000  -0.00016  -0.00016   1.97526
    A6        1.87870  -0.00001   0.00000  -0.00001  -0.00001   1.87869
    A7        2.09047   0.02986   0.00000   0.03936   0.03936   2.12983
    A8        2.09616  -0.00051   0.00000  -0.00159  -0.00159   2.09456
    A9        1.96404  -0.02931   0.00000  -0.10099  -0.10099   1.86305
   A10        2.11237  -0.00003   0.00000   0.01598   0.01598   2.12835
   A11        2.14961   0.00003   0.00000   0.00090   0.00090   2.15050
   A12        1.90893   0.00000   0.00000   0.02208   0.02208   1.93101
   A13        1.90893   0.00000   0.00000   0.02208   0.02208   1.93101
   A14        2.03595  -0.01203   0.00000  -0.03206  -0.03206   2.00389
   A15        2.15080  -0.01201   0.00000  -0.03628  -0.03628   2.11452
   A16        1.92401  -0.02133   0.00000  -0.07396  -0.07396   1.85005
   A17        2.09274   0.00007   0.00000   0.02490   0.02490   2.11764
   A18        2.12779  -0.00008   0.00000   0.01789   0.01789   2.14568
   A19        1.91961   0.00000   0.00000   0.01566   0.01566   1.93527
   A20        1.91961   0.00000   0.00000   0.01566   0.01566   1.93527
   A21        2.06758  -0.01854   0.00000  -0.04952  -0.04952   2.01805
   A22        2.11715  -0.00521   0.00000  -0.01580  -0.01580   2.10135
   A23        1.95473  -0.03013   0.00000  -0.10410  -0.10410   1.85062
   A24        2.10413  -0.00001   0.00000   0.00838   0.00838   2.11250
   A25        2.14453   0.00000   0.00000   0.00791   0.00791   2.15244
   A26        1.90880   0.00000   0.00000   0.02245   0.02245   1.93125
   A27        1.90880   0.00000   0.00000   0.02245   0.02245   1.93125
   A28        2.01442  -0.00630   0.00000  -0.01678  -0.01678   1.99763
   A29        2.21468  -0.02373   0.00000  -0.07190  -0.07190   2.14278
   A30        2.04669   0.00000   0.00000   0.03595   0.03595   2.08264
   A31        1.87972  -0.00003   0.00000  -0.00018  -0.00018   1.87954
   A32        1.91712  -0.00001   0.00000   0.00003   0.00003   1.91715
   A33        1.91711  -0.00001   0.00000   0.00003   0.00003   1.91715
    D4        1.02010   0.00000   0.00000   0.00003   0.00003   1.02012
    D5        2.12150   0.00000   0.00000  -0.00003  -0.00003   2.12147
    D6       -2.04019   0.00000   0.00000  -0.00006  -0.00006  -2.04025
    D7        3.14159   0.00000   0.00000   0.00000   0.00000   3.14159
    D8        0.00000   0.00000   0.00000   0.00000   0.00000   0.00000
    D9        3.14159   0.00000   0.00000   0.00000   0.00000   3.14159
   D10        0.00000   0.00000   0.00000   0.00000   0.00000   0.00000
   D11        3.14159   0.00000   0.00000   0.00000   0.00000   3.14159
   D12       -2.12679   0.00000   0.00000   0.02313   0.02313  -2.10366
   D13        2.12679   0.00000   0.00000  -0.02312  -0.02312   2.10366
   D14        3.14159   0.00000   0.00000   0.00000   0.00000   3.14159
   D15        3.14159   0.00000   0.00000   0.00000   0.00000   3.14159
   D16        3.14159   0.00000   0.00000   0.00000   0.00000   3.14159
   D17        0.00000   0.00000   0.00000   0.00000   0.00000   0.00000
   D18        3.14159   0.00000   0.00000   0.00000   0.00000   3.14159
   D19       -2.11333   0.00000   0.00000   0.01741   0.01741  -2.09591
   D20        2.11333   0.00000   0.00000  -0.01741  -0.01741   2.09591
   D21        3.14159   0.00000   0.00000   0.00000   0.00000   3.14159
   D22        3.14159   0.00000   0.00000   0.00000   0.00000   3.14159
   D23        3.14159   0.00000   0.00000   0.00000   0.00000   3.14159
   D24        0.00000   0.00000   0.00000   0.00000   0.00000   0.00000
   D25        3.14159   0.00000   0.00000   0.00000   0.00000   3.14159
   D26       -2.12098   0.00000   0.00000   0.02380   0.02380  -2.09718
   D27        2.12098   0.00000   0.00000  -0.02380  -0.02380   2.09718
   D28        3.14159   0.00000   0.00000   0.00000   0.00000   3.14159
   D29        3.14159   0.00000   0.00000   0.00000   0.00000   3.14159
   D30        3.14159   0.00000   0.00000   0.00000   0.00000   3.14159
   D31        0.00000   0.00000   0.00000   0.00000   0.00000   0.00000
   D32        2.08194   0.00001   0.00000  -0.00006  -0.00006   2.08188
   D33       -2.08194  -0.00001   0.00000   0.00006   0.00006  -2.08188
         Item               Value     Threshold  Converged?
 Maximum Force            0.030188     0.000450     NO 
 RMS     Force            0.010234     0.000300     NO 
 Maximum Displacement     0.104105     0.001800     NO 
 RMS     Displacement     0.030322     0.001200     NO 
 Predicted change in Energy=-1.312127D-02
 GradGradGradGradGradGradGradGradGradGradGradGradGradGradGradGradGradGrad

 Leave Link  103 at Fri Feb 17 11:44:09 2023, MaxMem=    33554432 cpu:         0.3
 (Enter /hits/basement/its/doserbd/software/gaussian/g09d1/g09/l9999.exe)
 1\1\GINC-HASWELL-110\Force\RBMK\6-31+G\C9H16N4O4\SUCERQDL\17-Feb-2023\
 1\\#P bmk/6-31+g force\\Gaussian input prepared by ASE\\0,1\C\O,1,R2\C
 ,1,R3,2,A3\H,3,R4,1,A4,2,D4,0\H,3,R5,1,A5,4,D5,0\H,3,R6,1,A6,4,D6,0\N,
 1,R7,2,A7,3,D7,0\C,7,R8,1,A8,2,D8,0\C,8,R9,7,A9,1,D9,0\O,9,R10,8,A10,7
 ,D10,0\H,7,R11,1,A11,8,D11,0\H,8,R12,7,A12,9,D12,0\H,8,R13,7,A13,9,D13
 ,0\N,9,R14,8,A14,10,D14,0\C,14,R15,9,A15,8,D15,0\C,15,R16,14,A16,9,D16
 ,0\O,16,R17,15,A17,14,D17,0\H,14,R18,9,A18,15,D18,0\H,15,R19,14,A19,16
 ,D19,0\H,15,R20,14,A20,16,D20,0\N,16,R21,15,A21,17,D21,0\C,21,R22,16,A
 22,15,D22,0\C,22,R23,21,A23,16,D23,0\O,23,R24,22,A24,21,D24,0\H,21,R25
 ,16,A25,22,D25,0\H,22,R26,21,A26,23,D26,0\H,22,R27,21,A27,23,D27,0\N,2
 3,R28,22,A28,24,D28,0\C,28,R29,23,A29,22,D29,0\H,28,R30,23,A30,29,D30,
 0\H,29,R31,28,A31,23,D31,0\H,29,R32,28,A32,31,D32,0\H,29,R33,28,A33,31
 ,D33,0\\R2=1.24787716\R3=1.55639467\R4=1.09559471\R5=1.0961551\R6=1.09
 55947\R7=1.37809416\R8=1.47443465\R9=1.55118752\R10=1.2460966\R11=1.01
 231259\R12=1.10031736\R13=1.10031739\R14=1.37184701\R15=1.47334763\R16
 =1.55565192\R17=1.24722468\R18=1.0151125\R19=1.10004413\R20=1.10004415
 \R21=1.36991128\R22=1.47283839\R23=1.55887843\R24=1.24248266\R25=1.014
 65982\R26=1.10023049\R27=1.10023052\R28=1.37333855\R29=1.49515581\R30=
 1.01139881\R31=1.09410027\R32=1.09557822\R33=1.09557815\A3=118.9033382
 1\A4=107.64138091\A5=113.18321378\A6=107.6413874\A7=119.77501392\A8=12
 0.10087721\A9=112.53145358\A10=121.03012513\A11=123.16333884\A12=109.3
 7375943\A13=109.37377624\A14=116.65140369\A15=123.23199925\A16=110.237
 74047\A17=119.90523734\A18=121.91329729\A19=109.98546412\A20=109.98546
 684\A21=118.46337848\A22=121.30393676\A23=111.99756531\A24=120.557489\
 A25=122.87240271\A26=109.36604735\A27=109.36605405\A28=115.41760525\A2
 9=126.89204292\A30=117.26678019\A31=107.70017257\A32=109.84260576\A33=
 109.84259015\D4=58.44714055\D5=121.55285945\D6=-116.89434287\D7=180.\D
 8=0.\D9=179.99992202\D10=0.00006388\D11=180.\D12=-121.85599111\D13=121
 .85594897\D14=179.99993612\D15=180.\D16=180.\D17=0.\D18=180.\D19=-121.
 08473449\D20=121.08472155\D21=180.\D22=180.\D23=180.\D24=0.\D25=180.\D
 26=-121.52302903\D27=121.52295631\D28=180.\D29=180.\D30=180.\D31=-0.00
 0137\D32=119.28660553\D33=-119.28660776\\Version=ES64L-G09RevD.01\Stat
 e=1-A\HF=-871.8479901\RMSD=6.461e-09\RMSF=3.179e-03\Dipole=-2.8022859,
 0.0000008,0.095743\Quadrupole=19.4212753,-3.3611805,-16.0600948,-0.000
 0023,-24.40256,0.0000187\PG=C01 [X(C9H16N4O4)]\\@


 TO BEHOLD HARMS OF OUR OWN HANDS DOING,
 WHERE NONE BESIDE US WROUGHT,
 CAUSES SHARP RUING...

                                         SOPHOCLES
 Job cpu time:       0 days  0 hours  5 minutes 49.8 seconds.
 File lengths (MBytes):  RWF=     71 Int=      0 D2E=      0 Chk=      5 Scr=      1
 Normal termination of Gaussian 09 at Fri Feb 17 11:44:09 2023.
