 Entering Gaussian System, Link 0=g09
 Input=test.com
 Output=test.log
 Initial command:
 /hits/basement/its/doserbd/software/gaussian/g09d1/g09/l1.exe "/hits/basement/mbm/sucerquia/gaussian_scratch/Gau-29997.inp" -scrdir="/hits/basement/mbm/sucerquia/gaussian_scratch/"
 Entering Link 1 = /hits/basement/its/doserbd/software/gaussian/g09d1/g09/l1.exe PID=     29998.
  
 Copyright (c) 1988,1990,1992,1993,1995,1998,2003,2009,2013,
            Gaussian, Inc.  All Rights Reserved.
  
 This is part of the Gaussian(R) 09 program.  It is based on
 the Gaussian(R) 03 system (copyright 2003, Gaussian, Inc.),
 the Gaussian(R) 98 system (copyright 1998, Gaussian, Inc.),
 the Gaussian(R) 94 system (copyright 1995, Gaussian, Inc.),
 the Gaussian 92(TM) system (copyright 1992, Gaussian, Inc.),
 the Gaussian 90(TM) system (copyright 1990, Gaussian, Inc.),
 the Gaussian 88(TM) system (copyright 1988, Gaussian, Inc.),
 the Gaussian 86(TM) system (copyright 1986, Carnegie Mellon
 University), and the Gaussian 82(TM) system (copyright 1983,
 Carnegie Mellon University). Gaussian is a federally registered
 trademark of Gaussian, Inc.
  
 This software contains proprietary and confidential information,
 including trade secrets, belonging to Gaussian, Inc.
  
 This software is provided under written license and may be
 used, copied, transmitted, or stored only in accord with that
 written license.
  
 The following legend is applicable only to US Government
 contracts under FAR:
  
                    RESTRICTED RIGHTS LEGEND
  
 Use, reproduction and disclosure by the US Government is
 subject to restrictions as set forth in subparagraphs (a)
 and (c) of the Commercial Computer Software - Restricted
 Rights clause in FAR 52.227-19.
  
 Gaussian, Inc.
 340 Quinnipiac St., Bldg. 40, Wallingford CT 06492
  
  
 ---------------------------------------------------------------
 Warning -- This program may not be used in any manner that
 competes with the business of Gaussian, Inc. or will provide
 assistance to any competitor of Gaussian, Inc.  The licensee
 of this program is prohibited from giving any competitor of
 Gaussian, Inc. access to this program.  By using this program,
 the user acknowledges that Gaussian, Inc. is engaged in the
 business of creating and licensing software in the field of
 computational chemistry and represents and warrants to the
 licensee that it is not a competitor of Gaussian, Inc. and that
 it will not use this program in any manner prohibited above.
 ---------------------------------------------------------------
  

 Cite this work as:
 Gaussian 09, Revision D.01,
 M. J. Frisch, G. W. Trucks, H. B. Schlegel, G. E. Scuseria, 
 M. A. Robb, J. R. Cheeseman, G. Scalmani, V. Barone, B. Mennucci, 
 G. A. Petersson, H. Nakatsuji, M. Caricato, X. Li, H. P. Hratchian, 
 A. F. Izmaylov, J. Bloino, G. Zheng, J. L. Sonnenberg, M. Hada, 
 M. Ehara, K. Toyota, R. Fukuda, J. Hasegawa, M. Ishida, T. Nakajima, 
 Y. Honda, O. Kitao, H. Nakai, T. Vreven, J. A. Montgomery, Jr., 
 J. E. Peralta, F. Ogliaro, M. Bearpark, J. J. Heyd, E. Brothers, 
 K. N. Kudin, V. N. Staroverov, T. Keith, R. Kobayashi, J. Normand, 
 K. Raghavachari, A. Rendell, J. C. Burant, S. S. Iyengar, J. Tomasi, 
 M. Cossi, N. Rega, J. M. Millam, M. Klene, J. E. Knox, J. B. Cross, 
 V. Bakken, C. Adamo, J. Jaramillo, R. Gomperts, R. E. Stratmann, 
 O. Yazyev, A. J. Austin, R. Cammi, C. Pomelli, J. W. Ochterski, 
 R. L. Martin, K. Morokuma, V. G. Zakrzewski, G. A. Voth, 
 P. Salvador, J. J. Dannenberg, S. Dapprich, A. D. Daniels, 
 O. Farkas, J. B. Foresman, J. V. Ortiz, J. Cioslowski, 
 and D. J. Fox, Gaussian, Inc., Wallingford CT, 2013.
 
 ******************************************
 Gaussian 09:  ES64L-G09RevD.01 24-Apr-2013
                17-Feb-2023 
 ******************************************
 %NProcShared=8
 Will use up to    8 processors via shared memory.
 -------------------
 #P bmk/6-31+g force
 -------------------
 1/10=7,30=1,38=1/1,3;
 2/12=2,17=6,18=5,40=1/2;
 3/5=1,6=6,7=10,11=2,16=1,25=1,30=1,71=1,74=-34/1,2,3;
 4//1;
 5/5=2,38=5/2;
 6/7=2,8=2,9=2,10=2,28=1/1;
 7/29=1/1,2,3,16;
 1/10=7,30=1/3;
 99//99;
 Leave Link    1 at Fri Feb 17 11:41:08 2023, MaxMem=           0 cpu:         0.6
 (Enter /hits/basement/its/doserbd/software/gaussian/g09d1/g09/l101.exe)
 ------------------------------
 Gaussian input prepared by ASE
 ------------------------------
 Symbolic Z-matrix:
 Charge =  0 Multiplicity = 1
 C
 O                    1    R2
 C                    1    R3       2    A3
 H                    3    R4       1    A4       2    D4       0
 H                    3    R5       1    A5       4    D5       0
 H                    3    R6       1    A6       4    D6       0
 N                    1    R7       2    A7       3    D7       0
 C                    7    R8       1    A8       2    D8       0
 C                    8    R9       7    A9       1    D9       0
 O                    9    R10      8    A10      7    D10      0
 H                    7    R11      1    A11      8    D11      0
 H                    8    R12      7    A12      9    D12      0
 H                    8    R13      7    A13      9    D13      0
 N                    9    R14      8    A14      10   D14      0
 C                    14   R15      9    A15      8    D15      0
 C                    15   R16      14   A16      9    D16      0
 O                    16   R17      15   A17      14   D17      0
 H                    14   R18      9    A18      15   D18      0
 H                    15   R19      14   A19      16   D19      0
 H                    15   R20      14   A20      16   D20      0
 N                    16   R21      15   A21      17   D21      0
 C                    21   R22      16   A22      15   D22      0
 C                    22   R23      21   A23      16   D23      0
 O                    23   R24      22   A24      21   D24      0
 H                    21   R25      16   A25      22   D25      0
 H                    22   R26      21   A26      23   D26      0
 H                    22   R27      21   A27      23   D27      0
 N                    23   R28      22   A28      24   D28      0
 C                    28   R29      23   A29      22   D29      0
 H                    28   R30      23   A30      29   D30      0
 H                    29   R31      28   A31      23   D31      0
 H                    29   R32      28   A32      31   D32      0
 H                    29   R33      28   A33      31   D33      0
       Variables:
  R2                    1.24803                  
  R3                    1.52012                  
  R4                    1.09679                  
  R5                    1.09561                  
  R6                    1.0968                   
  R7                    1.35797                  
  R8                    1.44861                  
  R9                    1.52937                  
  R10                   1.24922                  
  R11                   1.01331                  
  R12                   1.10076                  
  R13                   1.10075                  
  R14                   1.34961                  
  R15                   1.45003                  
  R16                   1.52986                  
  R17                   1.24901                  
  R18                   1.01449                  
  R19                   1.10033                  
  R20                   1.10032                  
  R21                   1.34839                  
  R22                   1.44997                  
  R23                   1.53219                  
  R24                   1.24629                  
  R25                   1.01599                  
  R26                   1.10049                  
  R27                   1.10047                  
  R28                   1.35255                  
  R29                   1.46252                  
  R30                   1.00913                  
  R31                   1.09652                  
  R32                   1.09652                  
  R33                   1.09346                  
  A3                  121.88474                  
  A4                  108.79705                  
  A5                  112.84156                  
  A6                  108.79689                  
  A7                  121.52168                  
  A8                  121.34015                  
  A9                  108.08346                  
  A10                 121.43068                  
  A11                 123.21204                  
  A12                 110.6291                   
  A13                 110.62961                  
  A14                 116.10052                  
  A15                 121.4924                   
  A16                 108.18637                  
  A17                 121.39008                  
  A18                 122.79216                  
  A19                 110.5611                   
  A20                 110.56201                  
  A21                 115.95586                  
  A22                 121.57939                  
  A23                 107.71405                  
  A24                 121.00064                  
  A25                 123.30693                  
  A26                 110.48838                  
  A27                 110.4848                   
  A28                 116.227                    
  A29                 121.16993                  
  A30                 119.84897                  
  A31                 110.43526                  
  A32                 110.43244                  
  A33                 108.83698                  
  D4                   58.53814                  
  D5                  121.46205                  
  D6                 -117.07578                  
  D7                 -179.99935                  
  D8                    0.00045                  
  D9                  179.99945                  
  D10                  -0.00494                  
  D11                 179.99678                  
  D12                -120.88071                  
  D13                 120.88198                  
  D14                -179.99986                  
  D15                -179.99899                  
  D16                 179.99834                  
  D17                   0.01561                  
  D18                -179.99652                  
  D19                -120.77986                  
  D20                 120.78101                  
  D21                 179.99965                  
  D22                 179.99965                  
  D23                -179.97165                  
  D24                  -0.00979                  
  D25                -179.99281                  
  D26                -120.70559                  
  D27                 120.70727                  
  D28                 180.                       
  D29                 179.99886                  
  D30                 179.99646                  
  D31                 -59.80592                  
  D32                 119.59897                  
  D33                -120.20081                  
 
 NAtoms=     33 NQM=       33 NQMF=       0 NMMI=      0 NMMIF=      0
                NMic=       0 NMicF=      0.
                    Isotopes and Nuclear Properties:
 (Nuclear quadrupole moments (NQMom) in fm**2, nuclear magnetic moments (NMagM)
  in nuclear magnetons)

  Atom         1           2           3           4           5           6           7           8           9          10
 IAtWgt=          12          16          12           1           1           1          14          12          12          16
 AtmWgt=  12.0000000  15.9949146  12.0000000   1.0078250   1.0078250   1.0078250  14.0030740  12.0000000  12.0000000  15.9949146
 NucSpn=           0           0           0           1           1           1           2           0           0           0
 AtZEff=   0.0000000   0.0000000   0.0000000   0.0000000   0.0000000   0.0000000   0.0000000   0.0000000   0.0000000   0.0000000
 NQMom=    0.0000000   0.0000000   0.0000000   0.0000000   0.0000000   0.0000000   2.0440000   0.0000000   0.0000000   0.0000000
 NMagM=    0.0000000   0.0000000   0.0000000   2.7928460   2.7928460   2.7928460   0.4037610   0.0000000   0.0000000   0.0000000
 AtZNuc=   6.0000000   8.0000000   6.0000000   1.0000000   1.0000000   1.0000000   7.0000000   6.0000000   6.0000000   8.0000000

  Atom        11          12          13          14          15          16          17          18          19          20
 IAtWgt=           1           1           1          14          12          12          16           1           1           1
 AtmWgt=   1.0078250   1.0078250   1.0078250  14.0030740  12.0000000  12.0000000  15.9949146   1.0078250   1.0078250   1.0078250
 NucSpn=           1           1           1           2           0           0           0           1           1           1
 AtZEff=   0.0000000   0.0000000   0.0000000   0.0000000   0.0000000   0.0000000   0.0000000   0.0000000   0.0000000   0.0000000
 NQMom=    0.0000000   0.0000000   0.0000000   2.0440000   0.0000000   0.0000000   0.0000000   0.0000000   0.0000000   0.0000000
 NMagM=    2.7928460   2.7928460   2.7928460   0.4037610   0.0000000   0.0000000   0.0000000   2.7928460   2.7928460   2.7928460
 AtZNuc=   1.0000000   1.0000000   1.0000000   7.0000000   6.0000000   6.0000000   8.0000000   1.0000000   1.0000000   1.0000000

  Atom        21          22          23          24          25          26          27          28          29          30
 IAtWgt=          14          12          12          16           1           1           1          14          12           1
 AtmWgt=  14.0030740  12.0000000  12.0000000  15.9949146   1.0078250   1.0078250   1.0078250  14.0030740  12.0000000   1.0078250
 NucSpn=           2           0           0           0           1           1           1           2           0           1
 AtZEff=   0.0000000   0.0000000   0.0000000   0.0000000   0.0000000   0.0000000   0.0000000   0.0000000   0.0000000   0.0000000
 NQMom=    2.0440000   0.0000000   0.0000000   0.0000000   0.0000000   0.0000000   0.0000000   2.0440000   0.0000000   0.0000000
 NMagM=    0.4037610   0.0000000   0.0000000   0.0000000   2.7928460   2.7928460   2.7928460   0.4037610   0.0000000   2.7928460
 AtZNuc=   7.0000000   6.0000000   6.0000000   8.0000000   1.0000000   1.0000000   1.0000000   7.0000000   6.0000000   1.0000000

  Atom        31          32          33
 IAtWgt=           1           1           1
 AtmWgt=   1.0078250   1.0078250   1.0078250
 NucSpn=           1           1           1
 AtZEff=   0.0000000   0.0000000   0.0000000
 NQMom=    0.0000000   0.0000000   0.0000000
 NMagM=    2.7928460   2.7928460   2.7928460
 AtZNuc=   1.0000000   1.0000000   1.0000000
 Leave Link  101 at Fri Feb 17 11:41:08 2023, MaxMem=    33554432 cpu:         1.5
 (Enter /hits/basement/its/doserbd/software/gaussian/g09d1/g09/l103.exe)

 GradGradGradGradGradGradGradGradGradGradGradGradGradGradGradGradGradGrad
 Berny optimization.
 Initialization pass.
                       ----------------------------
                       !    Initial Parameters    !
                       ! (Angstroms and Degrees)  !
 ----------------------                            ----------------------
 !      Name          Value   Derivative information (Atomic Units)     !
 ------------------------------------------------------------------------
 !       R2          1.248    estimate D2E/DX2                          !
 !       R3          1.5201   estimate D2E/DX2                          !
 !       R4          1.0968   estimate D2E/DX2                          !
 !       R5          1.0956   estimate D2E/DX2                          !
 !       R6          1.0968   estimate D2E/DX2                          !
 !       R7          1.358    estimate D2E/DX2                          !
 !       R8          1.4486   estimate D2E/DX2                          !
 !       R9          1.5294   estimate D2E/DX2                          !
 !       R10         1.2492   estimate D2E/DX2                          !
 !       R11         1.0133   estimate D2E/DX2                          !
 !       R12         1.1008   estimate D2E/DX2                          !
 !       R13         1.1008   estimate D2E/DX2                          !
 !       R14         1.3496   estimate D2E/DX2                          !
 !       R15         1.45     estimate D2E/DX2                          !
 !       R16         1.5299   estimate D2E/DX2                          !
 !       R17         1.249    estimate D2E/DX2                          !
 !       R18         1.0145   estimate D2E/DX2                          !
 !       R19         1.1003   estimate D2E/DX2                          !
 !       R20         1.1003   estimate D2E/DX2                          !
 !       R21         1.3484   estimate D2E/DX2                          !
 !       R22         1.45     estimate D2E/DX2                          !
 !       R23         1.5322   estimate D2E/DX2                          !
 !       R24         1.2463   estimate D2E/DX2                          !
 !       R25         1.016    estimate D2E/DX2                          !
 !       R26         1.1005   estimate D2E/DX2                          !
 !       R27         1.1005   estimate D2E/DX2                          !
 !       R28         1.3526   estimate D2E/DX2                          !
 !       R29         1.4625   estimate D2E/DX2                          !
 !       R30         1.0091   estimate D2E/DX2                          !
 !       R31         1.0965   estimate D2E/DX2                          !
 !       R32         1.0965   estimate D2E/DX2                          !
 !       R33         1.0935   estimate D2E/DX2                          !
 !       A3        121.8847   estimate D2E/DX2                          !
 !       A4        108.7971   estimate D2E/DX2                          !
 !       A5        112.8416   estimate D2E/DX2                          !
 !       A6        108.7969   estimate D2E/DX2                          !
 !       A7        121.5217   estimate D2E/DX2                          !
 !       A8        121.3401   estimate D2E/DX2                          !
 !       A9        108.0835   estimate D2E/DX2                          !
 !       A10       121.4307   estimate D2E/DX2                          !
 !       A11       123.212    estimate D2E/DX2                          !
 !       A12       110.6291   estimate D2E/DX2                          !
 !       A13       110.6296   estimate D2E/DX2                          !
 !       A14       116.1005   estimate D2E/DX2                          !
 !       A15       121.4924   estimate D2E/DX2                          !
 !       A16       108.1864   estimate D2E/DX2                          !
 !       A17       121.3901   estimate D2E/DX2                          !
 !       A18       122.7922   estimate D2E/DX2                          !
 !       A19       110.5611   estimate D2E/DX2                          !
 !       A20       110.562    estimate D2E/DX2                          !
 !       A21       115.9559   estimate D2E/DX2                          !
 !       A22       121.5794   estimate D2E/DX2                          !
 !       A23       107.714    estimate D2E/DX2                          !
 !       A24       121.0006   estimate D2E/DX2                          !
 !       A25       123.3069   estimate D2E/DX2                          !
 !       A26       110.4884   estimate D2E/DX2                          !
 !       A27       110.4848   estimate D2E/DX2                          !
 !       A28       116.227    estimate D2E/DX2                          !
 !       A29       121.1699   estimate D2E/DX2                          !
 !       A30       119.849    estimate D2E/DX2                          !
 !       A31       110.4353   estimate D2E/DX2                          !
 !       A32       110.4324   estimate D2E/DX2                          !
 !       A33       108.837    estimate D2E/DX2                          !
 !       D4         58.5381   estimate D2E/DX2                          !
 !       D5        121.462    estimate D2E/DX2                          !
 !       D6       -117.0758   estimate D2E/DX2                          !
 !       D7       -179.9993   estimate D2E/DX2                          !
 !       D8          0.0004   estimate D2E/DX2                          !
 !       D9        179.9994   estimate D2E/DX2                          !
 !       D10        -0.0049   estimate D2E/DX2                          !
 !       D11       179.9968   estimate D2E/DX2                          !
 !       D12      -120.8807   estimate D2E/DX2                          !
 !       D13       120.882    estimate D2E/DX2                          !
 !       D14      -179.9999   estimate D2E/DX2                          !
 !       D15      -179.999    estimate D2E/DX2                          !
 !       D16       179.9983   estimate D2E/DX2                          !
 !       D17         0.0156   estimate D2E/DX2                          !
 !       D18      -179.9965   estimate D2E/DX2                          !
 !       D19      -120.7799   estimate D2E/DX2                          !
 !       D20       120.781    estimate D2E/DX2                          !
 !       D21       179.9996   estimate D2E/DX2                          !
 !       D22       179.9997   estimate D2E/DX2                          !
 !       D23      -179.9717   estimate D2E/DX2                          !
 !       D24        -0.0098   estimate D2E/DX2                          !
 !       D25      -179.9928   estimate D2E/DX2                          !
 !       D26      -120.7056   estimate D2E/DX2                          !
 !       D27       120.7073   estimate D2E/DX2                          !
 !       D28       180.0      estimate D2E/DX2                          !
 !       D29       179.9989   estimate D2E/DX2                          !
 !       D30       179.9965   estimate D2E/DX2                          !
 !       D31       -59.8059   estimate D2E/DX2                          !
 !       D32       119.599    estimate D2E/DX2                          !
 !       D33      -120.2008   estimate D2E/DX2                          !
 ------------------------------------------------------------------------
 Trust Radius=3.00D-01 FncErr=1.00D-07 GrdErr=1.00D-07
 Number of steps in this run=      2 maximum allowed number of steps=      2.
 GradGradGradGradGradGradGradGradGradGradGradGradGradGradGradGradGradGrad

 Leave Link  103 at Fri Feb 17 11:41:08 2023, MaxMem=    33554432 cpu:         0.2
 (Enter /hits/basement/its/doserbd/software/gaussian/g09d1/g09/l202.exe)
                          Input orientation:                          
 ---------------------------------------------------------------------
 Center     Atomic      Atomic             Coordinates (Angstroms)
 Number     Number       Type             X           Y           Z
 ---------------------------------------------------------------------
      1          6           0        0.000000    0.000000    0.000000
      2          8           0        0.000000    0.000000    1.248028
      3          6           0        1.290750    0.000000   -0.802944
      4          1           0        1.877079   -0.885654   -0.529467
      5          1           0        1.118544    0.000003   -1.884935
      6          1           0        1.877082    0.885652   -0.529458
      7          7           0       -1.157595    0.000013   -0.709978
      8          6           0       -2.446729    0.000038   -0.049210
      9          6           0       -3.532334    0.000061   -1.126449
     10          8           0       -3.243940    0.000150   -2.341925
     11          1           0       -1.187485    0.000055   -1.722846
     12          1           0       -2.550653    0.884180    0.598223
     13          1           0       -2.550687   -0.884080    0.598234
     14          7           0       -4.807488   -0.000016   -0.684361
     15          6           0       -5.928192   -0.000025   -1.604475
     16          6           0       -7.219505   -0.000162   -0.784124
     17          8           0       -7.196899    0.000046    0.464682
     18          1           0       -5.047259   -0.000019    0.301382
     19          1           0       -5.892268   -0.885093   -2.257223
     20          1           0       -5.892383    0.885114   -2.257122
     21          7           0       -8.367755   -0.000510   -1.491002
     22          6           0       -9.661937   -0.000681   -0.837161
     23          6           0      -10.736200   -0.001794   -1.929665
     24          8           0      -10.424538   -0.002194   -3.136362
     25          1           0       -8.397717   -0.000777   -2.506550
     26          1           0       -9.768756    0.886003   -0.194158
     27          1           0       -9.767914   -0.886685   -0.193108
     28          7           0      -12.020417   -0.002305   -1.505183
     29          6           0      -13.131873   -0.003346   -2.455779
     30          1           0      -12.222611   -0.002019   -0.516517
     31          1           0      -13.087425    0.884492   -3.097746
     32          1           0      -13.086278   -0.891619   -3.097062
     33          1           0      -14.072828   -0.003730   -1.898776
 ---------------------------------------------------------------------
                    Distance matrix (angstroms):
                    1          2          3          4          5
     1  C    0.000000
     2  O    1.248028   0.000000
     3  C    1.520117   2.423329   0.000000
     4  H    2.141995   2.732635   1.096792   0.000000
     5  H    2.191831   3.326650   1.095610   1.788032   0.000000
     6  H    2.141995   2.732631   1.096795   1.771306   1.788036
     7  N    1.357974   2.274601   2.450109   3.166423   2.561510
     8  C    2.447223   2.769352   3.812724   4.439640   4.010119
     9  C    3.707597   4.256234   4.833922   5.513858   4.712321
    10  O    4.000970   4.838482   4.788724   5.504042   4.386354
    11  H    2.092444   3.199409   2.643458   3.405904   2.311718
    12  H    2.765046   2.776662   4.183470   4.899878   4.517837
    13  H    2.765048   2.776659   4.183484   4.569117   4.517853
    14  N    4.855954   5.181320   6.099391   6.744760   6.046423
    15  C    6.141481   6.578771   7.263303   7.928570   7.052314
    16  C    7.261963   7.500060   8.510276   9.143127   8.410401
    17  O    7.211885   7.239405   8.581786   9.171143   8.641023
    18  H    5.056249   5.135266   6.433498   7.030015   6.541949
    19  H    6.371598   6.912959   7.382009   7.959138   7.076261
    20  H    6.371672   6.913008   7.382104   8.153830   7.076372
    21  N    8.499553   8.804635   9.682982  10.327858   9.494474
    22  C    9.698137   9.884384  10.952741  11.576992  10.831279
    23  C   10.908236  11.196595  12.079612  12.721500  11.854828
    24  O   10.886127  11.309018  11.945410  12.605799  11.610720
    25  H    8.763815   9.198832   9.837107  10.500633   9.536541
    26  H    9.810774   9.914308  11.111629  11.784595  11.053371
    27  H    9.809976   9.913386  11.110903  11.649849  11.052758
    28  N   12.114289  12.331691  13.329678  13.959682  13.144448
    29  C   13.359527  13.644204  14.517023  15.157763  14.261846
    30  H   12.233520  12.349326  13.516397  14.127358  13.411152
    31  H   13.478095  13.818422  14.586993  15.286133  14.285054
    32  H   13.477294  13.817578  14.586189  15.182049  14.284299
    33  H   14.200347  14.420363  15.402610  16.032851  15.191378
                    6          7          8          9         10
     6  H    0.000000
     7  N    3.166419   0.000000
     8  C    4.439627   1.448613   0.000000
     9  C    5.513842   2.410983   1.529374   0.000000
    10  O    5.504000   2.648790   2.427362   1.249221   0.000000
    11  H    3.405882   1.013310   2.094457   2.419505   2.147618
    12  H    4.569082   2.105648   1.100762   2.172524   3.147480
    13  H    4.899876   2.105646   1.100752   2.172526   3.147538
    14  N    6.744767   3.649984   2.444709   1.349614   2.278640
    15  C    7.928580   4.853733   3.813061   2.443080   2.783710
    16  C    9.143162   6.062364   4.829026   3.703028   4.269878
    17  O    9.171136   6.152481   4.777887   3.995088   4.847981
    18  H    7.030022   4.018997   2.624056   2.081754   3.199849
    19  H    8.153742   5.059102   4.186946   2.762505   2.793648
    20  H    7.959235   5.059178   4.186976   2.762530   2.793673
    21  N   10.327949   7.252338   6.094039   4.849143   5.193992
    22  C   11.577099   8.505293   7.258106   6.136425   6.592041
    23  C   12.721754   9.655948   8.500085   7.248506   7.503594
    24  O   12.606113   9.579331   8.554295   7.179292   7.224412
    25  H   10.500769   7.459695   6.438384   5.057334   5.156406
    26  H   11.650664   8.671975   7.376858   6.367654   6.926101
    27  H   11.783897   8.671273   7.376092   6.367095   6.925758
    28  N   13.959978  10.891890   9.683768   8.496528   8.816275
    29  C   15.158159  12.100876  10.952804   9.691144   9.888590
    30  H   14.127614  11.066708   9.787046   8.711655   9.162350
    31  H   15.183300  12.198549  11.104065   9.796325   9.911989
    32  H   15.285726  12.197814  11.103354   9.795726   9.911463
    33  H   16.033267  12.969831  11.772302  10.568752  10.837953
                   11         12         13         14         15
    11  H    0.000000
    12  H    2.833244   0.000000
    13  H    2.833272   1.768260   0.000000
    14  N    3.766015   2.742285   2.742220   0.000000
    15  C    4.742184   4.128131   4.128076   1.450029   0.000000
    16  C    6.104626   4.948850   4.948746   2.414079   1.529858
    17  O    6.395180   4.731503   4.731469   2.651336   2.427143
    18  H    4.358366   2.665138   2.665062   1.014485   2.099603
    19  H    4.817055   4.738174   4.395429   2.105707   1.100326
    20  H    4.817141   4.395470   4.738147   2.105713   1.100319
    21  N    7.184012   6.243894   6.243707   3.650502   2.442201
    22  C    8.520609   7.308465   7.308257   4.856853   3.811775
    23  C    9.550955   8.612685   8.612277   6.058086   4.818994
    24  O    9.344580   8.759615   8.759136   6.128912   4.750139
    25  H    7.252698   6.679141   6.678897   4.026179   2.629125
    26  H    8.761279   7.261465   7.474061   5.063547   4.186165
    27  H    8.760717   7.473354   7.260481   5.062937   4.185880
    28  N   10.835118   9.740975   9.740517   7.259483   6.093035
    29  C   11.966855  11.048839  11.048266   8.510777   7.253810
    30  H   11.100867   9.776235   9.775828   7.417023   6.387752
    31  H   12.011709  11.166188  11.305351   8.669725   7.366604
    32  H   12.011029  11.305219  11.164853   8.669166   7.366204
    33  H   12.886544  11.823024  11.822428   9.344589   8.149953
                   16         17         18         19         20
    16  C    0.000000
    17  O    1.249010   0.000000
    18  H    2.428369   2.155834   0.000000
    19  H    2.171332   3.145520   2.836169   0.000000
    20  H    2.171333   3.145365   2.836131   1.770207   0.000000
    21  N    1.348389   2.279386   3.773372   2.738178   2.738382
    22  C    2.443008   2.787689   4.753055   4.124217   4.124374
    23  C    3.698569   4.273120   6.110780   4.934693   4.935220
    24  O    3.975584   4.835822   6.382258   4.700412   4.701149
    25  H    2.086849   3.204713   4.371505   2.668605   2.669029
    26  H    2.762613   2.798828   4.829403   4.734996   4.391137
    27  H    2.762175   2.798052   4.828590   4.391037   4.734888
    28  N    4.854759   5.210249   7.203375   6.236914   6.237445
    29  C    6.144147   6.614607   8.541835   7.295807   7.296509
    30  H    5.010258   5.120600   7.221817   6.624434   6.624839
    31  H    6.369297   6.940565   8.773865   7.457091   7.243982
    32  H    6.368941   6.940164   8.773266   7.242869   7.457506
    33  H    6.943378   7.270787   9.289866   8.235706   8.236391
                   21         22         23         24         25
    21  N    0.000000
    22  C    1.449971   0.000000
    23  C    2.408726   1.532191   0.000000
    24  O    2.633927   2.422373   1.246295   0.000000
    25  H    1.015991   2.094066   2.408589   2.122421   0.000000
    26  H    2.104878   1.100487   2.176262   3.142532   2.830775
    27  H    2.104823   1.100472   2.176291   3.142646   2.830952
    28  N    3.652690   2.451262   1.352552   2.282011   3.758549
    29  C    4.860826   3.828889   2.452764   2.791569   4.734429
    30  H    3.976121   2.580672   2.050952   3.177523   4.311618
    31  H    5.063610   4.198541   2.770952   2.806897   4.809010
    32  H    5.063395   4.198456   2.770825   2.806685   4.808836
    33  H    5.719628   4.536849   3.336771   3.852485   5.707564
                   26         27         28         29         30
    26  H    0.000000
    27  H    1.772689   0.000000
    28  N    2.752790   2.752715   0.000000
    29  C    4.149269   4.149240   1.462522   0.000000
    30  H    2.629430   2.629214   1.009129   2.141844   0.000000
    31  H    4.409580   4.753225   2.112149   1.096519   2.862961
    32  H    4.753182   4.409594   2.112113   1.096518   2.862956
    33  H    4.714062   4.713937   2.089811   1.093457   2.309533
                   31         32         33
    31  H    0.000000
    32  H    1.776112   0.000000
    33  H    1.788151   1.788160   0.000000
 Stoichiometry    C9H16N4O4
 Framework group  C1[X(C9H16N4O4)]
 Deg. of freedom    93
 Full point group                 C1      NOp   1
 Largest Abelian subgroup         C1      NOp   1
 Largest concise Abelian subgroup C1      NOp   1
                         Standard orientation:                         
 ---------------------------------------------------------------------
 Center     Atomic      Atomic             Coordinates (Angstroms)
 Number     Number       Type             X           Y           Z
 ---------------------------------------------------------------------
      1          6           0        5.924753    0.192617    0.000532
      2          8           0        6.107552    1.427186    0.000808
      3          6           0        7.083975   -0.790724    0.000566
      4          1           0        7.703864   -0.606248    0.886376
      5          1           0        6.755146   -1.835823    0.000295
      6          1           0        7.704213   -0.605895   -0.884929
      7          7           0        4.675652   -0.340150    0.000173
      8          6           0        3.497204    0.502311    0.000083
      9          6           0        2.265523   -0.404301   -0.000356
     10          8           0        2.372777   -1.648909   -0.000666
     11          1           0        4.497729   -1.337717   -0.000097
     12          1           0        3.489402    1.158156   -0.883933
     13          1           0        3.489026    1.157828    0.884327
     14          7           0        1.068875    0.219791   -0.000390
     15          6           0       -0.174511   -0.526249   -0.000768
     16          6           0       -1.331741    0.474393   -0.000661
     17          8           0       -1.126466    1.706419   -0.000590
     18          1           0        0.976072    1.230023   -0.000209
     19          1           0       -0.234755   -1.177392    0.884162
     20          1           0       -0.234511   -1.176930   -0.886045
     21          7           0       -2.571144   -0.056676   -0.000657
     22          6           0       -3.755600    0.779672   -0.000554
     23          6           0       -4.978297   -0.143702    0.000143
     24          8           0       -4.846741   -1.383034    0.000327
     25          1           0       -2.749530   -1.056884   -0.000619
     26          1           0       -3.766914    1.431559   -0.887112
     27          1           0       -3.766271    1.432129    0.885576
     28          7           0       -6.186489    0.464302    0.000537
     29          6           0       -7.425193   -0.313247    0.001186
     30          1           0       -6.241693    1.471920    0.000436
     31          1           0       -7.475081   -0.954628   -0.886787
     32          1           0       -7.474191   -0.954465    0.889325
     33          1           0       -8.274415    0.375570    0.001539
 ---------------------------------------------------------------------
 Rotational constants (GHZ):      2.3349288      0.1033142      0.0992439
 Leave Link  202 at Fri Feb 17 11:41:08 2023, MaxMem=    33554432 cpu:         0.1
 (Enter /hits/basement/its/doserbd/software/gaussian/g09d1/g09/l301.exe)
 Standard basis: 6-31+G (6D, 7F)
 Ernie: Thresh=  0.10000D-02 Tol=  0.10000D-05 Strict=F.
 There are   253 symmetry adapted cartesian basis functions of A   symmetry.
 There are   253 symmetry adapted basis functions of A   symmetry.
   253 basis functions,   506 primitive gaussians,   253 cartesian basis functions
    65 alpha electrons       65 beta electrons
       nuclear repulsion energy      1137.3552904829 Hartrees.
 IExCor= 3226 DFT=T Ex+Corr=BMK ExCW=0 ScaHFX=  0.420000
 ScaDFX=  1.000000  1.000000  1.000000  1.000000 ScalE2=  1.000000  1.000000
 IRadAn=      0 IRanWt=     -1 IRanGd=            0 ICorTp=0 IEmpDi=  4
 NAtoms=   33 NActive=   33 NUniq=   33 SFac= 1.00D+00 NAtFMM=   60 NAOKFM=F Big=F
 Integral buffers will be    131072 words long.
 Raffenetti 2 integral format.
 Two-electron integral symmetry is turned on.
 Leave Link  301 at Fri Feb 17 11:41:08 2023, MaxMem=    33554432 cpu:         0.4
 (Enter /hits/basement/its/doserbd/software/gaussian/g09d1/g09/l302.exe)
 NPDir=0 NMtPBC=     1 NCelOv=     1 NCel=       1 NClECP=     1 NCelD=      1
         NCelK=      1 NCelE2=     1 NClLst=     1 CellRange=     0.0.
 One-electron integrals computed using PRISM.
 NBasis=   253 RedAO= T EigKep=  9.09D-06  NBF=   253
 NBsUse=   253 1.00D-06 EigRej= -1.00D+00 NBFU=   253
 Precomputing XC quadrature grid using
 IXCGrd= 4 IRadAn=           0 IRanWt=          -1 IRanGd=           0 AccXCQ= 0.00D+00.
 Generated NRdTot=       0 NPtTot=           0 NUsed=           0 NTot=          32
 NSgBfM=   243   243   243   243   243 MxSgAt=    33 MxSgA2=    33.
 Leave Link  302 at Fri Feb 17 11:41:09 2023, MaxMem=    33554432 cpu:         2.8
 (Enter /hits/basement/its/doserbd/software/gaussian/g09d1/g09/l303.exe)
 DipDrv:  MaxL=1.
 Leave Link  303 at Fri Feb 17 11:41:09 2023, MaxMem=    33554432 cpu:         0.3
 (Enter /hits/basement/its/doserbd/software/gaussian/g09d1/g09/l401.exe)
 ExpMin= 4.38D-02 ExpMax= 5.48D+03 ExpMxC= 8.25D+02 IAcc=2 IRadAn=         4 AccDes= 0.00D+00
 Harris functional with IExCor= 1009 and IRadAn=       4 diagonalized for initial guess.
 HarFok:  IExCor= 1009 AccDes= 0.00D+00 IRadAn=         4 IDoV= 1 UseB2=F ITyADJ=14
 ICtDFT=  3500011 ScaDFX=  1.000000  1.000000  1.000000  1.000000
 FoFCou: FMM=F IPFlag=           0 FMFlag=      100000 FMFlg1=           0
         NFxFlg=           0 DoJE=T BraDBF=F KetDBF=T FulRan=T
         wScrn=  0.000000 ICntrl=     500 IOpCl=  0 I1Cent=   200000004 NGrid=           0
         NMat0=    1 NMatS0=      1 NMatT0=    0 NMatD0=    1 NMtDS0=    0 NMtDT0=    0
 Petite list used in FoFCou.
 Harris En= -871.532066842461    
 JPrj=0 DoOrth=F DoCkMO=F.
 Leave Link  401 at Fri Feb 17 11:41:10 2023, MaxMem=    33554432 cpu:         8.2
 (Enter /hits/basement/its/doserbd/software/gaussian/g09d1/g09/l502.exe)
 Closed shell SCF:
 Using DIIS extrapolation, IDIIS=  1040.
 Integral symmetry usage will be decided dynamically.
 IVT=      214538 IEndB=      214538 NGot=    33554432 MDV=    33420797
 LenX=    33420797 LenY=    33356347
 Requested convergence on RMS density matrix=1.00D-08 within 128 cycles.
 Requested convergence on MAX density matrix=1.00D-06.
 Requested convergence on             energy=1.00D-06.
 No special actions if energy rises.
 Fock matrices will be formed incrementally for  20 cycles.

 Cycle   1  Pass 1  IDiag  1:
 FoFJK:  IHMeth= 1 ICntrl=       0 DoSepK=F KAlg= 0 I1Cent=   0 FoldK=F
 IRaf= 740000000 NMat=   1 IRICut=       1 DoRegI=T DoRafI=F ISym2E= 0.
 FoFCou: FMM=F IPFlag=           0 FMFlag=      100000 FMFlg1=           0
         NFxFlg=           0 DoJE=F BraDBF=F KetDBF=F FulRan=T
         wScrn=  0.000000 ICntrl=       0 IOpCl=  0 I1Cent=           0 NGrid=           0
         NMat0=    1 NMatS0=      1 NMatT0=    0 NMatD0=    1 NMtDS0=    0 NMtDT0=    0
 Symmetry not used in FoFCou.
 E= -871.465275670670    
 DIIS: error= 3.48D-02 at cycle   1 NSaved=   1.
 NSaved= 1 IEnMin= 1 EnMin= -871.465275670670     IErMin= 1 ErrMin= 3.48D-02
 ErrMax= 3.48D-02  0.00D+00 EMaxC= 1.00D-01 BMatC= 4.56D-01 BMatP= 4.56D-01
 IDIUse=3 WtCom= 6.52D-01 WtEn= 3.48D-01
 Coeff-Com:  0.100D+01
 Coeff-En:   0.100D+01
 Coeff:      0.100D+01
 Gap=     0.315 Goal=   None    Shift=    0.000
 GapD=    0.315 DampG=1.000 DampE=0.500 DampFc=0.5000 IDamp=-1.
 Damping current iteration by 5.00D-01
 RMSDP=3.15D-02 MaxDP=2.25D+00              OVMax= 2.65D-01

 Cycle   2  Pass 1  IDiag  1:
 RMSU=  1.26D-02    CP:  1.22D+00
 E= -871.583685752718     Delta-E=       -0.118410082048 Rises=F Damp=T
 DIIS: error= 1.39D-02 at cycle   2 NSaved=   2.
 NSaved= 2 IEnMin= 2 EnMin= -871.583685752718     IErMin= 2 ErrMin= 1.39D-02
 ErrMax= 1.39D-02  0.00D+00 EMaxC= 1.00D-01 BMatC= 6.30D-02 BMatP= 4.56D-01
 IDIUse=3 WtCom= 8.61D-01 WtEn= 1.39D-01
 Coeff-Com:  0.210D+00 0.790D+00
 Coeff-En:   0.316D+00 0.684D+00
 Coeff:      0.225D+00 0.775D+00
 Gap=     0.302 Goal=   None    Shift=    0.000
 RMSDP=1.44D-02 MaxDP=1.03D+00 DE=-1.18D-01 OVMax= 1.32D-01

 Cycle   3  Pass 1  IDiag  1:
 RMSU=  6.68D-03    CP:  9.75D-01  4.45D-01
 E= -871.831586700420     Delta-E=       -0.247900947702 Rises=F Damp=F
 DIIS: error= 1.18D-02 at cycle   3 NSaved=   3.
 NSaved= 3 IEnMin= 3 EnMin= -871.831586700420     IErMin= 3 ErrMin= 1.18D-02
 ErrMax= 1.18D-02  0.00D+00 EMaxC= 1.00D-01 BMatC= 3.02D-02 BMatP= 6.30D-02
 IDIUse=3 WtCom= 8.82D-01 WtEn= 1.18D-01
 Coeff-Com:  0.645D-01 0.408D+00 0.527D+00
 Coeff-En:   0.000D+00 0.000D+00 0.100D+01
 Coeff:      0.569D-01 0.360D+00 0.583D+00
 Gap=     0.309 Goal=   None    Shift=    0.000
 RMSDP=2.21D-03 MaxDP=1.49D-01 DE=-2.48D-01 OVMax= 4.20D-02

 Cycle   4  Pass 1  IDiag  1:
 RMSU=  1.74D-03    CP:  9.97D-01  5.22D-01  1.01D+00
 E= -871.856169035800     Delta-E=       -0.024582335380 Rises=F Damp=F
 DIIS: error= 4.24D-03 at cycle   4 NSaved=   4.
 NSaved= 4 IEnMin= 4 EnMin= -871.856169035800     IErMin= 4 ErrMin= 4.24D-03
 ErrMax= 4.24D-03  0.00D+00 EMaxC= 1.00D-01 BMatC= 3.73D-03 BMatP= 3.02D-02
 IDIUse=3 WtCom= 9.58D-01 WtEn= 4.24D-02
 Coeff-Com:  0.121D-01 0.289D-01 0.261D+00 0.698D+00
 Coeff-En:   0.000D+00 0.000D+00 0.559D-01 0.944D+00
 Coeff:      0.116D-01 0.276D-01 0.252D+00 0.709D+00
 Gap=     0.306 Goal=   None    Shift=    0.000
 RMSDP=8.39D-04 MaxDP=6.81D-02 DE=-2.46D-02 OVMax= 1.12D-02

 Cycle   5  Pass 1  IDiag  1:
 RMSU=  2.82D-04    CP:  9.85D-01  4.80D-01  1.02D+00  8.44D-01
 E= -871.859020614914     Delta-E=       -0.002851579114 Rises=F Damp=F
 DIIS: error= 1.00D-03 at cycle   5 NSaved=   5.
 NSaved= 5 IEnMin= 5 EnMin= -871.859020614914     IErMin= 5 ErrMin= 1.00D-03
 ErrMax= 1.00D-03  0.00D+00 EMaxC= 1.00D-01 BMatC= 2.25D-04 BMatP= 3.73D-03
 IDIUse=3 WtCom= 9.90D-01 WtEn= 1.00D-02
 Coeff-Com:  0.312D-02-0.147D-01 0.922D-01 0.355D+00 0.564D+00
 Coeff-En:   0.000D+00 0.000D+00 0.000D+00 0.000D+00 0.100D+01
 Coeff:      0.309D-02-0.146D-01 0.913D-01 0.352D+00 0.568D+00
 Gap=     0.304 Goal=   None    Shift=    0.000
 RMSDP=1.98D-04 MaxDP=1.44D-02 DE=-2.85D-03 OVMax= 3.22D-03

 Cycle   6  Pass 1  IDiag  1:
 RMSU=  1.13D-04    CP:  9.82D-01  4.74D-01  1.02D+00  8.34D-01  7.95D-01
 E= -871.859220480069     Delta-E=       -0.000199865155 Rises=F Damp=F
 DIIS: error= 1.62D-04 at cycle   6 NSaved=   6.
 NSaved= 6 IEnMin= 6 EnMin= -871.859220480069     IErMin= 6 ErrMin= 1.62D-04
 ErrMax= 1.62D-04  0.00D+00 EMaxC= 1.00D-01 BMatC= 1.09D-05 BMatP= 2.25D-04
 IDIUse=3 WtCom= 9.98D-01 WtEn= 1.62D-03
 Coeff-Com:  0.159D-02-0.813D-02 0.254D-01 0.992D-01 0.228D+00 0.654D+00
 Coeff-En:   0.000D+00 0.000D+00 0.000D+00 0.000D+00 0.000D+00 0.100D+01
 Coeff:      0.159D-02-0.812D-02 0.254D-01 0.991D-01 0.228D+00 0.654D+00
 Gap=     0.304 Goal=   None    Shift=    0.000
 RMSDP=7.24D-05 MaxDP=6.52D-03 DE=-2.00D-04 OVMax= 7.49D-04

 Cycle   7  Pass 1  IDiag  1:
 RMSU=  4.34D-05    CP:  9.82D-01  4.71D-01  1.02D+00  8.28D-01  8.63D-01
                    CP:  8.85D-01
 E= -871.859227525719     Delta-E=       -0.000007045650 Rises=F Damp=F
 DIIS: error= 1.01D-04 at cycle   7 NSaved=   7.
 NSaved= 7 IEnMin= 7 EnMin= -871.859227525719     IErMin= 7 ErrMin= 1.01D-04
 ErrMax= 1.01D-04  0.00D+00 EMaxC= 1.00D-01 BMatC= 3.30D-06 BMatP= 1.09D-05
 IDIUse=3 WtCom= 9.99D-01 WtEn= 1.01D-03
 Coeff-Com:  0.664D-03-0.263D-02-0.279D-02-0.138D-01 0.322D-01 0.407D+00
 Coeff-Com:  0.579D+00
 Coeff-En:   0.000D+00 0.000D+00 0.000D+00 0.000D+00 0.000D+00 0.493D-01
 Coeff-En:   0.951D+00
 Coeff:      0.664D-03-0.263D-02-0.279D-02-0.138D-01 0.321D-01 0.407D+00
 Coeff:      0.580D+00
 Gap=     0.304 Goal=   None    Shift=    0.000
 RMSDP=3.16D-05 MaxDP=2.17D-03 DE=-7.05D-06 OVMax= 3.59D-04

 Cycle   8  Pass 1  IDiag  1:
 RMSU=  1.95D-05    CP:  9.81D-01  4.70D-01  1.02D+00  8.29D-01  8.58D-01
                    CP:  9.60D-01  7.66D-01
 E= -871.859230121474     Delta-E=       -0.000002595755 Rises=F Damp=F
 DIIS: error= 2.62D-05 at cycle   8 NSaved=   8.
 NSaved= 8 IEnMin= 8 EnMin= -871.859230121474     IErMin= 8 ErrMin= 2.62D-05
 ErrMax= 2.62D-05  0.00D+00 EMaxC= 1.00D-01 BMatC= 2.58D-07 BMatP= 3.30D-06
 IDIUse=1 WtCom= 1.00D+00 WtEn= 0.00D+00
 Coeff-Com:  0.162D-03-0.120D-03-0.472D-02-0.216D-01-0.166D-01 0.837D-01
 Coeff-Com:  0.270D+00 0.689D+00
 Coeff:      0.162D-03-0.120D-03-0.472D-02-0.216D-01-0.166D-01 0.837D-01
 Coeff:      0.270D+00 0.689D+00
 Gap=     0.304 Goal=   None    Shift=    0.000
 RMSDP=1.11D-05 MaxDP=7.27D-04 DE=-2.60D-06 OVMax= 1.16D-04

 Cycle   9  Pass 1  IDiag  1:
 RMSU=  4.43D-06    CP:  9.81D-01  4.69D-01  1.02D+00  8.29D-01  8.75D-01
                    CP:  9.40D-01  8.63D-01  1.08D+00
 E= -871.859230373107     Delta-E=       -0.000000251633 Rises=F Damp=F
 DIIS: error= 5.39D-06 at cycle   9 NSaved=   9.
 NSaved= 9 IEnMin= 9 EnMin= -871.859230373107     IErMin= 9 ErrMin= 5.39D-06
 ErrMax= 5.39D-06  0.00D+00 EMaxC= 1.00D-01 BMatC= 1.23D-08 BMatP= 2.58D-07
 IDIUse=1 WtCom= 1.00D+00 WtEn= 0.00D+00
 Coeff-Com: -0.222D-04 0.201D-03-0.504D-03-0.290D-02-0.589D-02-0.299D-01
 Coeff-Com: -0.324D-02 0.188D+00 0.854D+00
 Coeff:     -0.222D-04 0.201D-03-0.504D-03-0.290D-02-0.589D-02-0.299D-01
 Coeff:     -0.324D-02 0.188D+00 0.854D+00
 Gap=     0.304 Goal=   None    Shift=    0.000
 RMSDP=3.41D-06 MaxDP=2.40D-04 DE=-2.52D-07 OVMax= 3.11D-05

 Cycle  10  Pass 1  IDiag  1:
 RMSU=  1.47D-06    CP:  9.81D-01  4.69D-01  1.02D+00  8.28D-01  8.76D-01
                    CP:  9.53D-01  8.57D-01  1.10D+00  9.25D-01
 E= -871.859230387611     Delta-E=       -0.000000014504 Rises=F Damp=F
 DIIS: error= 1.53D-06 at cycle  10 NSaved=  10.
 NSaved=10 IEnMin=10 EnMin= -871.859230387611     IErMin=10 ErrMin= 1.53D-06
 ErrMax= 1.53D-06  0.00D+00 EMaxC= 1.00D-01 BMatC= 8.90D-10 BMatP= 1.23D-08
 IDIUse=1 WtCom= 1.00D+00 WtEn= 0.00D+00
 Coeff-Com: -0.147D-04 0.881D-04-0.212D-04-0.413D-03-0.182D-02-0.153D-01
 Coeff-Com: -0.119D-01 0.532D-01 0.345D+00 0.631D+00
 Coeff:     -0.147D-04 0.881D-04-0.212D-04-0.413D-03-0.182D-02-0.153D-01
 Coeff:     -0.119D-01 0.532D-01 0.345D+00 0.631D+00
 Gap=     0.304 Goal=   None    Shift=    0.000
 RMSDP=4.78D-07 MaxDP=3.70D-05 DE=-1.45D-08 OVMax= 6.65D-06

 Cycle  11  Pass 1  IDiag  1:
 RMSU=  3.00D-07    CP:  9.81D-01  4.69D-01  1.02D+00  8.28D-01  8.76D-01
                    CP:  9.52D-01  8.62D-01  1.10D+00  9.48D-01  9.54D-01
 E= -871.859230388327     Delta-E=       -0.000000000716 Rises=F Damp=F
 DIIS: error= 5.16D-07 at cycle  11 NSaved=  11.
 NSaved=11 IEnMin=11 EnMin= -871.859230388327     IErMin=11 ErrMin= 5.16D-07
 ErrMax= 5.16D-07  0.00D+00 EMaxC= 1.00D-01 BMatC= 1.32D-10 BMatP= 8.90D-10
 IDIUse=1 WtCom= 1.00D+00 WtEn= 0.00D+00
 Coeff-Com: -0.155D-05 0.147D-05 0.867D-04 0.325D-03 0.288D-03-0.991D-03
 Coeff-Com: -0.437D-02-0.112D-01-0.735D-02 0.277D+00 0.746D+00
 Coeff:     -0.155D-05 0.147D-05 0.867D-04 0.325D-03 0.288D-03-0.991D-03
 Coeff:     -0.437D-02-0.112D-01-0.735D-02 0.277D+00 0.746D+00
 Gap=     0.304 Goal=   None    Shift=    0.000
 RMSDP=2.56D-07 MaxDP=1.95D-05 DE=-7.16D-10 OVMax= 2.39D-06

 Cycle  12  Pass 1  IDiag  1:
 RMSU=  1.21D-07    CP:  9.81D-01  4.69D-01  1.02D+00  8.28D-01  8.76D-01
                    CP:  9.51D-01  8.63D-01  1.11D+00  9.52D-01  9.72D-01
                    CP:  9.28D-01
 E= -871.859230388463     Delta-E=       -0.000000000136 Rises=F Damp=F
 DIIS: error= 1.51D-07 at cycle  12 NSaved=  12.
 NSaved=12 IEnMin=12 EnMin= -871.859230388463     IErMin=12 ErrMin= 1.51D-07
 ErrMax= 1.51D-07  0.00D+00 EMaxC= 1.00D-01 BMatC= 6.04D-12 BMatP= 1.32D-10
 IDIUse=1 WtCom= 1.00D+00 WtEn= 0.00D+00
 Coeff-Com:  0.332D-07-0.189D-05 0.356D-04 0.132D-03 0.165D-03 0.146D-04
 Coeff-Com: -0.136D-02-0.598D-02-0.124D-01 0.847D-01 0.284D+00 0.651D+00
 Coeff:      0.332D-07-0.189D-05 0.356D-04 0.132D-03 0.165D-03 0.146D-04
 Coeff:     -0.136D-02-0.598D-02-0.124D-01 0.847D-01 0.284D+00 0.651D+00
 Gap=     0.304 Goal=   None    Shift=    0.000
 RMSDP=4.79D-08 MaxDP=3.42D-06 DE=-1.36D-10 OVMax= 6.60D-07

 Cycle  13  Pass 1  IDiag  1:
 RMSU=  3.58D-08    CP:  9.81D-01  4.69D-01  1.02D+00  8.28D-01  8.76D-01
                    CP:  9.51D-01  8.62D-01  1.11D+00  9.53D-01  9.78D-01
                    CP:  9.35D-01  8.80D-01
 E= -871.859230388445     Delta-E=        0.000000000017 Rises=F Damp=F
 DIIS: error= 1.03D-07 at cycle  13 NSaved=  13.
 NSaved=13 IEnMin=12 EnMin= -871.859230388463     IErMin=13 ErrMin= 1.03D-07
 ErrMax= 1.03D-07  0.00D+00 EMaxC= 1.00D-01 BMatC= 2.54D-12 BMatP= 6.04D-12
 IDIUse=1 WtCom= 1.00D+00 WtEn= 0.00D+00
 Coeff-Com:  0.435D-06-0.185D-05 0.890D-05 0.302D-04 0.671D-04 0.243D-03
 Coeff-Com: -0.940D-04-0.221D-02-0.810D-02 0.489D-02 0.528D-01 0.421D+00
 Coeff-Com:  0.531D+00
 Coeff:      0.435D-06-0.185D-05 0.890D-05 0.302D-04 0.671D-04 0.243D-03
 Coeff:     -0.940D-04-0.221D-02-0.810D-02 0.489D-02 0.528D-01 0.421D+00
 Coeff:      0.531D+00
 Gap=     0.304 Goal=   None    Shift=    0.000
 RMSDP=2.44D-08 MaxDP=2.26D-06 DE= 1.73D-11 OVMax= 3.52D-07

 Cycle  14  Pass 1  IDiag  1:
 RMSU=  1.03D-08    CP:  9.81D-01  4.69D-01  1.02D+00  8.28D-01  8.76D-01
                    CP:  9.51D-01  8.62D-01  1.11D+00  9.53D-01  9.78D-01
                    CP:  9.49D-01  9.43D-01  7.51D-01
 E= -871.859230388441     Delta-E=        0.000000000005 Rises=F Damp=F
 DIIS: error= 1.52D-08 at cycle  14 NSaved=  14.
 NSaved=14 IEnMin=12 EnMin= -871.859230388463     IErMin=14 ErrMin= 1.52D-08
 ErrMax= 1.52D-08  0.00D+00 EMaxC= 1.00D-01 BMatC= 1.03D-13 BMatP= 2.54D-12
 IDIUse=1 WtCom= 1.00D+00 WtEn= 0.00D+00
 Coeff-Com:  0.205D-06-0.601D-06 0.378D-06-0.105D-05 0.125D-04 0.102D-03
 Coeff-Com:  0.837D-04-0.349D-03-0.218D-02-0.641D-02-0.568D-02 0.126D+00
 Coeff-Com:  0.232D+00 0.656D+00
 Coeff:      0.205D-06-0.601D-06 0.378D-06-0.105D-05 0.125D-04 0.102D-03
 Coeff:      0.837D-04-0.349D-03-0.218D-02-0.641D-02-0.568D-02 0.126D+00
 Coeff:      0.232D+00 0.656D+00
 Gap=     0.304 Goal=   None    Shift=    0.000
 RMSDP=6.02D-09 MaxDP=6.16D-07 DE= 4.55D-12 OVMax= 5.97D-08

 SCF Done:  E(RBMK) =  -871.859230388     A.U. after   14 cycles
            NFock= 14  Conv=0.60D-08     -V/T= 2.0057
 KE= 8.668925560555D+02 PE=-4.311030537919D+03 EE= 1.434923460993D+03
 Leave Link  502 at Fri Feb 17 11:41:48 2023, MaxMem=    33554432 cpu:       305.9
 (Enter /hits/basement/its/doserbd/software/gaussian/g09d1/g09/l601.exe)
 Copying SCF densities to generalized density rwf, IOpCl= 0 IROHF=0.

 **********************************************************************

            Population analysis using the SCF density.

 **********************************************************************

 Orbital symmetries:
       Occupied  (A) (A) (A) (A) (A) (A) (A) (A) (A) (A) (A) (A)
                 (A) (A) (A) (A) (A) (A) (A) (A) (A) (A) (A) (A)
                 (A) (A) (A) (A) (A) (A) (A) (A) (A) (A) (A) (A)
                 (A) (A) (A) (A) (A) (A) (A) (A) (A) (A) (A) (A)
                 (A) (A) (A) (A) (A) (A) (A) (A) (A) (A) (A) (A)
                 (A) (A) (A) (A) (A)
       Virtual   (A) (A) (A) (A) (A) (A) (A) (A) (A) (A) (A) (A)
                 (A) (A) (A) (A) (A) (A) (A) (A) (A) (A) (A) (A)
                 (A) (A) (A) (A) (A) (A) (A) (A) (A) (A) (A) (A)
                 (A) (A) (A) (A) (A) (A) (A) (A) (A) (A) (A) (A)
                 (A) (A) (A) (A) (A) (A) (A) (A) (A) (A) (A) (A)
                 (A) (A) (A) (A) (A) (A) (A) (A) (A) (A) (A) (A)
                 (A) (A) (A) (A) (A) (A) (A) (A) (A) (A) (A) (A)
                 (A) (A) (A) (A) (A) (A) (A) (A) (A) (A) (A) (A)
                 (A) (A) (A) (A) (A) (A) (A) (A) (A) (A) (A) (A)
                 (A) (A) (A) (A) (A) (A) (A) (A) (A) (A) (A) (A)
                 (A) (A) (A) (A) (A) (A) (A) (A) (A) (A) (A) (A)
                 (A) (A) (A) (A) (A) (A) (A) (A) (A) (A) (A) (A)
                 (A) (A) (A) (A) (A) (A) (A) (A) (A) (A) (A) (A)
                 (A) (A) (A) (A) (A) (A) (A) (A) (A) (A) (A) (A)
                 (A) (A) (A) (A) (A) (A) (A) (A) (A) (A) (A) (A)
                 (A) (A) (A) (A) (A) (A) (A) (A)
 The electronic state is 1-A.
 Alpha  occ. eigenvalues --  -19.55558 -19.54906 -19.53865 -19.50984 -14.74118
 Alpha  occ. eigenvalues --  -14.73090 -14.72133 -14.70171 -10.63464 -10.62899
 Alpha  occ. eigenvalues --  -10.61803 -10.59518 -10.55595 -10.54641 -10.53299
 Alpha  occ. eigenvalues --  -10.53175 -10.47633  -1.17675  -1.16762  -1.15684
 Alpha  occ. eigenvalues --   -1.12871  -1.04334  -1.03943  -1.02959  -1.00742
 Alpha  occ. eigenvalues --   -0.86955  -0.84381  -0.81805  -0.78770  -0.76206
 Alpha  occ. eigenvalues --   -0.69044  -0.67846  -0.66974  -0.65081  -0.63212
 Alpha  occ. eigenvalues --   -0.58922  -0.57309  -0.55796  -0.55454  -0.55081
 Alpha  occ. eigenvalues --   -0.54010  -0.53308  -0.52659  -0.51964  -0.51479
 Alpha  occ. eigenvalues --   -0.50496  -0.48777  -0.47964  -0.47102  -0.46380
 Alpha  occ. eigenvalues --   -0.45903  -0.45420  -0.44161  -0.43666  -0.43391
 Alpha  occ. eigenvalues --   -0.42086  -0.39285  -0.34569  -0.33484  -0.33455
 Alpha  occ. eigenvalues --   -0.32316  -0.32223  -0.31073  -0.29262  -0.28988
 Alpha virt. eigenvalues --    0.01448   0.01706   0.02270   0.03304   0.03771
 Alpha virt. eigenvalues --    0.04119   0.05059   0.05414   0.05488   0.05534
 Alpha virt. eigenvalues --    0.06599   0.07165   0.07494   0.08023   0.08422
 Alpha virt. eigenvalues --    0.08937   0.09417   0.09857   0.10711   0.11102
 Alpha virt. eigenvalues --    0.11265   0.11990   0.12253   0.12700   0.12876
 Alpha virt. eigenvalues --    0.13742   0.14289   0.15040   0.15687   0.15767
 Alpha virt. eigenvalues --    0.15844   0.16351   0.16550   0.17887   0.18603
 Alpha virt. eigenvalues --    0.18889   0.19190   0.20340   0.20445   0.20838
 Alpha virt. eigenvalues --    0.20862   0.21417   0.22139   0.22447   0.22489
 Alpha virt. eigenvalues --    0.22757   0.23064   0.23484   0.24376   0.24739
 Alpha virt. eigenvalues --    0.25261   0.25855   0.25953   0.26140   0.26653
 Alpha virt. eigenvalues --    0.27210   0.27636   0.27784   0.28154   0.28457
 Alpha virt. eigenvalues --    0.28513   0.29695   0.29973   0.30009   0.30478
 Alpha virt. eigenvalues --    0.30920   0.31234   0.31941   0.32391   0.32611
 Alpha virt. eigenvalues --    0.32998   0.33488   0.34183   0.34575   0.35080
 Alpha virt. eigenvalues --    0.35942   0.36103   0.36593   0.36809   0.37302
 Alpha virt. eigenvalues --    0.37530   0.37801   0.38868   0.39964   0.40219
 Alpha virt. eigenvalues --    0.41059   0.41883   0.42887   0.43599   0.44485
 Alpha virt. eigenvalues --    0.45096   0.46055   0.46489   0.47661   0.48883
 Alpha virt. eigenvalues --    0.49388   0.50452   0.52157   0.53218   0.54250
 Alpha virt. eigenvalues --    0.54999   0.57106   0.57417   0.59181   0.70113
 Alpha virt. eigenvalues --    0.70414   0.70792   0.71466   0.72092   0.73044
 Alpha virt. eigenvalues --    0.73917   0.74246   0.75519   0.76158   0.78739
 Alpha virt. eigenvalues --    0.79249   0.79887   0.80355   0.81479   0.82934
 Alpha virt. eigenvalues --    0.84231   0.87451   0.88501   0.89642   0.90473
 Alpha virt. eigenvalues --    0.92717   0.93030   0.94701   0.96166   0.99430
 Alpha virt. eigenvalues --    0.99554   1.01396   1.02451   1.03701   1.03926
 Alpha virt. eigenvalues --    1.08129   1.09038   1.10532   1.10842   1.11025
 Alpha virt. eigenvalues --    1.12296   1.14235   1.15742   1.16631   1.18768
 Alpha virt. eigenvalues --    1.19581   1.20153   1.20697   1.21886   1.22976
 Alpha virt. eigenvalues --    1.24258   1.26337   1.26981   1.31514   1.34113
 Alpha virt. eigenvalues --    1.34582   1.35543   1.35560   1.36869   1.36969
 Alpha virt. eigenvalues --    1.37644   1.38616   1.40602   1.41624   1.44308
 Alpha virt. eigenvalues --    1.45580   1.47928   1.48604   1.48920   1.52245
 Alpha virt. eigenvalues --    1.54309   1.55246   1.55945   1.57987   1.62576
 Alpha virt. eigenvalues --    1.63228   1.64497   1.66980   1.69529   1.71172
 Alpha virt. eigenvalues --    1.77731   1.88141   1.93150   1.94308   2.13340
 Alpha virt. eigenvalues --    2.14036   2.15191   2.16057
          Condensed to atoms (all electrons):
               1          2          3          4          5          6
     1  C    6.131676   0.403879  -0.439900  -0.069572  -0.069173  -0.069573
     2  O    0.403879   8.496192  -0.052810  -0.004046   0.005026  -0.004046
     3  C   -0.439900  -0.052810   6.597775   0.421782   0.391043   0.421785
     4  H   -0.069572  -0.004046   0.421782   0.469556  -0.026491  -0.021689
     5  H   -0.069173   0.005026   0.391043  -0.026491   0.528814  -0.026491
     6  H   -0.069573  -0.004046   0.421785  -0.021689  -0.026491   0.469556
     7  N   -0.287865  -0.247816  -0.398482   0.003964   0.007397   0.003963
     8  C   -0.730845  -0.108731  -0.412989  -0.003913  -0.005353  -0.003914
     9  C    0.408716   0.081451   0.226401  -0.001491   0.004054  -0.001491
    10  O    0.008914  -0.000982   0.004790   0.000019  -0.000151   0.000019
    11  H    0.018381   0.003937   0.014198   0.000026   0.002707   0.000026
    12  H    0.007188   0.001936  -0.000256  -0.000011  -0.000007   0.000034
    13  H    0.007178   0.001934  -0.000255   0.000034  -0.000007  -0.000011
    14  N    0.027328  -0.002732   0.007122  -0.000011   0.000095  -0.000011
    15  C   -0.020821  -0.001466   0.007685   0.000000   0.000264   0.000000
    16  C   -0.007205   0.001019  -0.002992   0.000000  -0.000033   0.000000
    17  O    0.000551  -0.000009   0.000033   0.000000   0.000000   0.000000
    18  H   -0.000314   0.000031  -0.000130   0.000000   0.000000   0.000000
    19  H   -0.000032   0.000000  -0.000005   0.000000   0.000000   0.000000
    20  H   -0.000032   0.000000  -0.000005   0.000000   0.000000   0.000000
    21  N   -0.000216   0.000000  -0.000035   0.000000   0.000000   0.000000
    22  C    0.000167   0.000003   0.000019   0.000000   0.000000   0.000000
    23  C    0.000028   0.000000   0.000001   0.000000   0.000000   0.000000
    24  O    0.000000   0.000000   0.000000   0.000000   0.000000   0.000000
    25  H    0.000001   0.000000   0.000000   0.000000   0.000000   0.000000
    26  H    0.000000   0.000000   0.000000   0.000000   0.000000   0.000000
    27  H    0.000000   0.000000   0.000000   0.000000   0.000000   0.000000
    28  N    0.000000   0.000000   0.000000   0.000000   0.000000   0.000000
    29  C    0.000000   0.000000   0.000000   0.000000   0.000000   0.000000
    30  H    0.000000   0.000000   0.000000   0.000000   0.000000   0.000000
    31  H    0.000000   0.000000   0.000000   0.000000   0.000000   0.000000
    32  H    0.000000   0.000000   0.000000   0.000000   0.000000   0.000000
    33  H    0.000000   0.000000   0.000000   0.000000   0.000000   0.000000
               7          8          9         10         11         12
     1  C   -0.287865  -0.730845   0.408716   0.008914   0.018381   0.007188
     2  O   -0.247816  -0.108731   0.081451  -0.000982   0.003937   0.001936
     3  C   -0.398482  -0.412989   0.226401   0.004790   0.014198  -0.000256
     4  H    0.003964  -0.003913  -0.001491   0.000019   0.000026  -0.000011
     5  H    0.007397  -0.005353   0.004054  -0.000151   0.002707  -0.000007
     6  H    0.003963  -0.003914  -0.001491   0.000019   0.000026   0.000034
     7  N    8.179345   0.410187  -0.223936   0.007320   0.256416  -0.050172
     8  C    0.410187  11.192272  -3.685759   0.186358  -0.125389   0.378410
     9  C   -0.223936  -3.685759   9.303496   0.087373   0.057980  -0.042076
    10  O    0.007320   0.186358   0.087373   8.528436   0.020000   0.000131
    11  H    0.256416  -0.125389   0.057980   0.020000   0.293809   0.002244
    12  H   -0.050172   0.378410  -0.042076   0.000131   0.002244   0.475095
    13  H   -0.050171   0.378395  -0.042077   0.000133   0.002244  -0.033971
    14  N   -0.005671  -0.657407   0.064131  -0.285631   0.012466   0.011782
    15  C   -0.064198  -0.099466  -2.349760   0.020552   0.003667  -0.001043
    16  C    0.006278   0.055496   0.863071   0.015792  -0.000458   0.000505
    17  O    0.000176   0.007927   0.026937  -0.000527   0.000007   0.000075
    18  H    0.002133   0.006675   0.049203   0.001378  -0.000021   0.000275
    19  H    0.000018  -0.003011   0.009813   0.001250  -0.000002  -0.000017
    20  H    0.000018  -0.002999   0.009889   0.001252  -0.000002   0.000036
    21  N    0.000123  -0.002530   0.128500  -0.001055  -0.000001   0.000007
    22  C   -0.000090   0.011266   0.016098  -0.000991   0.000010   0.000044
    23  C   -0.000012  -0.004230  -0.027559   0.000645   0.000000  -0.000002
    24  O    0.000001  -0.000024   0.002311  -0.000013   0.000000   0.000000
    25  H    0.000001   0.000056  -0.000099   0.000000   0.000000   0.000000
    26  H    0.000000   0.000014  -0.000222   0.000000   0.000000   0.000000
    27  H    0.000000   0.000014  -0.000224   0.000000   0.000000   0.000000
    28  N    0.000000  -0.000009  -0.000326   0.000001   0.000000   0.000000
    29  C    0.000000  -0.000004  -0.000109   0.000002   0.000000   0.000000
    30  H    0.000000   0.000000  -0.000001   0.000000   0.000000   0.000000
    31  H    0.000000   0.000000   0.000000   0.000000   0.000000   0.000000
    32  H    0.000000   0.000000   0.000000   0.000000   0.000000   0.000000
    33  H    0.000000   0.000000   0.000000   0.000000   0.000000   0.000000
              13         14         15         16         17         18
     1  C    0.007178   0.027328  -0.020821  -0.007205   0.000551  -0.000314
     2  O    0.001934  -0.002732  -0.001466   0.001019  -0.000009   0.000031
     3  C   -0.000255   0.007122   0.007685  -0.002992   0.000033  -0.000130
     4  H    0.000034  -0.000011   0.000000   0.000000   0.000000   0.000000
     5  H   -0.000007   0.000095   0.000264  -0.000033   0.000000   0.000000
     6  H   -0.000011  -0.000011   0.000000   0.000000   0.000000   0.000000
     7  N   -0.050171  -0.005671  -0.064198   0.006278   0.000176   0.002133
     8  C    0.378395  -0.657407  -0.099466   0.055496   0.007927   0.006675
     9  C   -0.042077   0.064131  -2.349760   0.863071   0.026937   0.049203
    10  O    0.000133  -0.285631   0.020552   0.015792  -0.000527   0.001378
    11  H    0.002244   0.012466   0.003667  -0.000458   0.000007  -0.000021
    12  H   -0.033971   0.011782  -0.001043   0.000505   0.000075   0.000275
    13  H    0.475094   0.011787  -0.001008   0.000494   0.000076   0.000275
    14  N    0.011787   8.192341   0.235352  -0.142133   0.009050   0.265132
    15  C   -0.001008   0.235352  13.162359  -3.911078   0.163977  -0.150624
    16  C    0.000494  -0.142133  -3.911078   8.787918   0.139519   0.044887
    17  O    0.000076   0.009050   0.163977   0.139519   8.533343   0.023577
    18  H    0.000275   0.265132  -0.150624   0.044887   0.023577   0.283564
    19  H    0.000036  -0.046634   0.349644  -0.018674   0.000042   0.002313
    20  H   -0.000017  -0.046629   0.349740  -0.018819   0.000033   0.002314
    21  N    0.000007  -0.008288  -0.841578   0.133721  -0.309864   0.012235
    22  C    0.000044  -0.039164  -0.040192  -2.291250   0.005334   0.005328
    23  C   -0.000002   0.003474   0.011299   1.110548  -0.007283  -0.001137
    24  O    0.000000   0.000411   0.005124   0.028514  -0.001215   0.000009
    25  H    0.000000   0.002227  -0.000072   0.041256   0.001254  -0.000016
    26  H    0.000000  -0.000086  -0.003958   0.007287   0.001455  -0.000002
    27  H    0.000000  -0.000087  -0.004013   0.007212   0.001456  -0.000002
    28  N    0.000000  -0.000046  -0.005851   0.082918  -0.000691  -0.000002
    29  C    0.000000  -0.000023  -0.002315   0.028133  -0.000315  -0.000001
    30  H    0.000000   0.000000   0.000699  -0.000320   0.000020   0.000000
    31  H    0.000000   0.000000   0.000046   0.000364   0.000000   0.000000
    32  H    0.000000   0.000000   0.000047   0.000365   0.000000   0.000000
    33  H    0.000000   0.000000  -0.000004  -0.000337   0.000000   0.000000
              19         20         21         22         23         24
     1  C   -0.000032  -0.000032  -0.000216   0.000167   0.000028   0.000000
     2  O    0.000000   0.000000   0.000000   0.000003   0.000000   0.000000
     3  C   -0.000005  -0.000005  -0.000035   0.000019   0.000001   0.000000
     4  H    0.000000   0.000000   0.000000   0.000000   0.000000   0.000000
     5  H    0.000000   0.000000   0.000000   0.000000   0.000000   0.000000
     6  H    0.000000   0.000000   0.000000   0.000000   0.000000   0.000000
     7  N    0.000018   0.000018   0.000123  -0.000090  -0.000012   0.000001
     8  C   -0.003011  -0.002999  -0.002530   0.011266  -0.004230  -0.000024
     9  C    0.009813   0.009889   0.128500   0.016098  -0.027559   0.002311
    10  O    0.001250   0.001252  -0.001055  -0.000991   0.000645  -0.000013
    11  H   -0.000002  -0.000002  -0.000001   0.000010   0.000000   0.000000
    12  H   -0.000017   0.000036   0.000007   0.000044  -0.000002   0.000000
    13  H    0.000036  -0.000017   0.000007   0.000044  -0.000002   0.000000
    14  N   -0.046634  -0.046629  -0.008288  -0.039164   0.003474   0.000411
    15  C    0.349644   0.349740  -0.841578  -0.040192   0.011299   0.005124
    16  C   -0.018674  -0.018819   0.133721  -2.291250   1.110548   0.028514
    17  O    0.000042   0.000033  -0.309864   0.005334  -0.007283  -0.001215
    18  H    0.002313   0.002314   0.012235   0.005328  -0.001137   0.000009
    19  H    0.469318  -0.033261   0.012362   0.000937  -0.000273   0.000100
    20  H   -0.033261   0.469299   0.012369   0.000901  -0.000279   0.000100
    21  N    0.012362   0.012369   8.187076   0.324335  -0.207653   0.001634
    22  C    0.000937   0.000901   0.324335  14.386268  -5.022273   0.015033
    23  C   -0.000273  -0.000279  -0.207653  -5.022273   8.651654   0.289114
    24  O    0.000100   0.000100   0.001634   0.015033   0.289114   8.510196
    25  H    0.000226   0.000225   0.264002  -0.161649   0.069796   0.028416
    26  H   -0.000017   0.000034  -0.046587   0.315961   0.013968   0.000454
    27  H    0.000034  -0.000017  -0.046604   0.315980   0.014099   0.000458
    28  N    0.000003   0.000003  -0.007800  -0.997962   0.457091  -0.264449
    29  C    0.000013   0.000013  -0.007341  -0.220927  -0.101185  -0.034102
    30  H    0.000000   0.000000   0.001966  -0.003485   0.008391   0.004361
    31  H    0.000000   0.000000  -0.000243   0.001527  -0.023801   0.001173
    32  H    0.000000   0.000000  -0.000244   0.001588  -0.023882   0.001173
    33  H    0.000000   0.000000   0.000026  -0.005543   0.025677   0.001933
              25         26         27         28         29         30
     1  C    0.000001   0.000000   0.000000   0.000000   0.000000   0.000000
     2  O    0.000000   0.000000   0.000000   0.000000   0.000000   0.000000
     3  C    0.000000   0.000000   0.000000   0.000000   0.000000   0.000000
     4  H    0.000000   0.000000   0.000000   0.000000   0.000000   0.000000
     5  H    0.000000   0.000000   0.000000   0.000000   0.000000   0.000000
     6  H    0.000000   0.000000   0.000000   0.000000   0.000000   0.000000
     7  N    0.000001   0.000000   0.000000   0.000000   0.000000   0.000000
     8  C    0.000056   0.000014   0.000014  -0.000009  -0.000004   0.000000
     9  C   -0.000099  -0.000222  -0.000224  -0.000326  -0.000109  -0.000001
    10  O    0.000000   0.000000   0.000000   0.000001   0.000002   0.000000
    11  H    0.000000   0.000000   0.000000   0.000000   0.000000   0.000000
    12  H    0.000000   0.000000   0.000000   0.000000   0.000000   0.000000
    13  H    0.000000   0.000000   0.000000   0.000000   0.000000   0.000000
    14  N    0.002227  -0.000086  -0.000087  -0.000046  -0.000023   0.000000
    15  C   -0.000072  -0.003958  -0.004013  -0.005851  -0.002315   0.000699
    16  C    0.041256   0.007287   0.007212   0.082918   0.028133  -0.000320
    17  O    0.001254   0.001455   0.001456  -0.000691  -0.000315   0.000020
    18  H   -0.000016  -0.000002  -0.000002  -0.000002  -0.000001   0.000000
    19  H    0.000226  -0.000017   0.000034   0.000003   0.000013   0.000000
    20  H    0.000225   0.000034  -0.000017   0.000003   0.000013   0.000000
    21  N    0.264002  -0.046587  -0.046604  -0.007800  -0.007341   0.001966
    22  C   -0.161649   0.315961   0.315980  -0.997962  -0.220927  -0.003485
    23  C    0.069796   0.013968   0.014099   0.457091  -0.101185   0.008391
    24  O    0.028416   0.000454   0.000458  -0.264449  -0.034102   0.004361
    25  H    0.282453   0.002444   0.002445   0.009198   0.003745  -0.000029
    26  H    0.002444   0.474329  -0.033864   0.011810   0.004097  -0.000038
    27  H    0.002445  -0.033864   0.474297   0.011822   0.004098  -0.000038
    28  N    0.009198   0.011810   0.011822   7.986253   0.183775   0.284290
    29  C    0.003745   0.004097   0.004098   0.183775   5.335174  -0.023497
    30  H   -0.000029  -0.000038  -0.000038   0.284290  -0.023497   0.325559
    31  H    0.000000   0.000027  -0.000015  -0.047679   0.414098   0.002203
    32  H    0.000000  -0.000015   0.000027  -0.047660   0.414105   0.002204
    33  H    0.000000   0.000000   0.000000  -0.055964   0.380520  -0.004860
              31         32         33
     1  C    0.000000   0.000000   0.000000
     2  O    0.000000   0.000000   0.000000
     3  C    0.000000   0.000000   0.000000
     4  H    0.000000   0.000000   0.000000
     5  H    0.000000   0.000000   0.000000
     6  H    0.000000   0.000000   0.000000
     7  N    0.000000   0.000000   0.000000
     8  C    0.000000   0.000000   0.000000
     9  C    0.000000   0.000000   0.000000
    10  O    0.000000   0.000000   0.000000
    11  H    0.000000   0.000000   0.000000
    12  H    0.000000   0.000000   0.000000
    13  H    0.000000   0.000000   0.000000
    14  N    0.000000   0.000000   0.000000
    15  C    0.000046   0.000047  -0.000004
    16  C    0.000364   0.000365  -0.000337
    17  O    0.000000   0.000000   0.000000
    18  H    0.000000   0.000000   0.000000
    19  H    0.000000   0.000000   0.000000
    20  H    0.000000   0.000000   0.000000
    21  N   -0.000243  -0.000244   0.000026
    22  C    0.001527   0.001588  -0.005543
    23  C   -0.023801  -0.023882   0.025677
    24  O    0.001173   0.001173   0.001933
    25  H    0.000000   0.000000   0.000000
    26  H    0.000027  -0.000015   0.000000
    27  H   -0.000015   0.000027   0.000000
    28  N   -0.047679  -0.047660  -0.055964
    29  C    0.414098   0.414105   0.380520
    30  H    0.002203   0.002204  -0.004860
    31  H    0.481861  -0.031525  -0.026211
    32  H   -0.031525   0.481845  -0.026211
    33  H   -0.026211  -0.026211   0.521676
 Mulliken charges:
               1
     1  C    0.681540
     2  O   -0.572772
     3  C   -0.784776
     4  H    0.231841
     5  H    0.188305
     6  H    0.231841
     7  N   -0.548928
     8  C   -0.780498
     9  C    1.035703
    10  O   -0.595014
    11  H    0.437755
    12  H    0.249792
    13  H    0.249789
    14  N   -0.608143
    15  C   -0.813010
    16  C    1.038001
    17  O   -0.594938
    18  H    0.452920
    19  H    0.255817
    20  H    0.255834
    21  N   -0.598325
    22  C   -0.617317
    23  C    0.763785
    24  O   -0.590711
    25  H    0.454120
    26  H    0.252908
    27  H    0.252921
    28  N   -0.598722
    29  C   -0.377955
    30  H    0.402576
    31  H    0.228176
    32  H    0.228183
    33  H    0.189298
 Sum of Mulliken charges =   0.00000
 Mulliken charges with hydrogens summed into heavy atoms:
               1
     1  C    0.681540
     2  O   -0.572772
     3  C   -0.132788
     7  N   -0.111172
     8  C   -0.280917
     9  C    1.035703
    10  O   -0.595014
    14  N   -0.155222
    15  C   -0.301358
    16  C    1.038001
    17  O   -0.594938
    21  N   -0.144204
    22  C   -0.111487
    23  C    0.763785
    24  O   -0.590711
    28  N   -0.196146
    29  C    0.267702
 Electronic spatial extent (au):  <R**2>=          10204.0792
 Charge=              0.0000 electrons
 Dipole moment (field-independent basis, Debye):
    X=             -8.3859    Y=              0.0527    Z=             -0.0004  Tot=              8.3860
 Quadrupole moment (field-independent basis, Debye-Ang):
   XX=            -77.2337   YY=           -117.2438   ZZ=           -101.1275
   XY=            -32.0928   XZ=             -0.0073   YZ=             -0.0018
 Traceless Quadrupole moment (field-independent basis, Debye-Ang):
   XX=             21.3013   YY=            -18.7088   ZZ=             -2.5925
   XY=            -32.0928   XZ=             -0.0073   YZ=             -0.0018
 Octapole moment (field-independent basis, Debye-Ang**2):
  XXX=           -426.1415  YYY=              0.7543  ZZZ=             -0.0014  XYY=            -36.9731
  XXY=            -39.3695  XXZ=              0.0050  XZZ=              1.6531  YZZ=              0.5058
  YYZ=              0.0016  XYZ=             -0.0340
 Hexadecapole moment (field-independent basis, Debye-Ang**3):
 XXXX=         -10442.0951 YYYY=           -671.5871 ZZZZ=           -131.0722 XXXY=          -1455.9943
 XXXZ=             -0.6072 YYYX=            -89.0724 YYYZ=              0.0007 ZZZX=              0.0148
 ZZZY=             -0.0020 XXYY=          -2431.3780 XXZZ=          -2120.3850 YYZZ=           -121.7422
 XXYZ=             -0.1208 YYXZ=             -0.0272 ZZXY=             13.4286
 N-N= 1.137355290483D+03 E-N=-4.311030537795D+03  KE= 8.668925560555D+02
 No NMR shielding tensors so no spin-rotation constants.
 Leave Link  601 at Fri Feb 17 11:41:49 2023, MaxMem=    33554432 cpu:         2.2
 (Enter /hits/basement/its/doserbd/software/gaussian/g09d1/g09/l701.exe)
 Compute integral first derivatives.
 ... and contract with generalized density number  0.
 Leave Link  701 at Fri Feb 17 11:41:49 2023, MaxMem=    33554432 cpu:         1.4
 (Enter /hits/basement/its/doserbd/software/gaussian/g09d1/g09/l702.exe)
 L702 exits ... SP integral derivatives will be done elsewhere.
 Leave Link  702 at Fri Feb 17 11:41:49 2023, MaxMem=    33554432 cpu:         0.1
 (Enter /hits/basement/its/doserbd/software/gaussian/g09d1/g09/l703.exe)
 Compute integral first derivatives, UseDBF=F ICtDFT=           0.
 Integral derivatives from FoFJK, PRISM(SPDF).
 Calling FoFJK, ICntrl=      2127 FMM=F ISym2X=0 I1Cent= 0 IOpClX= 0 NMat=1 NMatS=1 NMatT=0.
 FoFJK:  IHMeth= 1 ICntrl=    2127 DoSepK=F KAlg= 0 I1Cent=   0 FoldK=F
 IRaf=         0 NMat=   1 IRICut=       1 DoRegI=T DoRafI=F ISym2E= 0.
 FoFCou: FMM=F IPFlag=           0 FMFlag=      100000 FMFlg1=         800
         NFxFlg=           0 DoJE=F BraDBF=F KetDBF=F FulRan=T
         wScrn=  0.000000 ICntrl=    2127 IOpCl=  0 I1Cent=           0 NGrid=           0
         NMat0=    1 NMatS0=      1 NMatT0=    0 NMatD0=    1 NMtDS0=    0 NMtDT0=    0
 Symmetry not used in FoFCou.
 Leave Link  703 at Fri Feb 17 11:41:54 2023, MaxMem=    33554432 cpu:        35.9
 (Enter /hits/basement/its/doserbd/software/gaussian/g09d1/g09/l716.exe)
 Dipole        =-3.29925100D+00 2.07313385D-02-1.46503359D-04
 ***** Axes restored to original set *****
 -------------------------------------------------------------------
 Center     Atomic                   Forces (Hartrees/Bohr)
 Number     Number              X              Y              Z
 -------------------------------------------------------------------
      1        6          -0.000000331    0.000001402   -0.000017635
      2        8           0.000005916   -0.000000699   -0.000013481
      3        6           0.000003418    0.000000760   -0.000013829
      4        1           0.000001352    0.000000412   -0.000018678
      5        1          -0.000002279   -0.000000018   -0.000015057
      6        1           0.000000061   -0.000001549   -0.000019529
      7        7          -0.000002055    0.000000030   -0.000009306
      8        6          -0.000000935    0.000005289   -0.000005361
      9        6          -0.000003988    0.000001233   -0.000001000
     10        8          -0.000002254   -0.000001587   -0.000003935
     11        1           0.000004212   -0.000000383   -0.000012718
     12        1           0.000004628   -0.000004747   -0.000010774
     13        1           0.000003750   -0.000000037   -0.000008415
     14        7          -0.000002069    0.000000805   -0.000006244
     15        6          -0.000002087   -0.000007653   -0.000003305
     16        6          -0.000000449    0.000001795    0.000000422
     17        8           0.000002785   -0.000000716   -0.000003164
     18        1           0.000005337    0.000000125   -0.000000102
     19        1          -0.000002599    0.000005142    0.000002773
     20        1          -0.000003396    0.000000175    0.000000718
     21        7           0.000002939    0.000002776    0.000009462
     22        6           0.000000188    0.000003767    0.000013007
     23        6          -0.000005947   -0.000003988    0.000011740
     24        8           0.000003916    0.000003011    0.000016414
     25        1          -0.000003514   -0.000001751    0.000002367
     26        1           0.000002902   -0.000001565    0.000005698
     27        1           0.000001579   -0.000002675    0.000009037
     28        7           0.000008970    0.000001848   -0.000001163
     29        6          -0.000009643   -0.000001614    0.000020515
     30        1          -0.000000047    0.000001255    0.000014217
     31        1          -0.000000488   -0.000000808    0.000021493
     32        1          -0.000003733    0.000000683    0.000019040
     33        1          -0.000006140   -0.000000718    0.000016795
 -------------------------------------------------------------------
 Cartesian Forces:  Max     0.000021493 RMS     0.000007405
 -----------------------------------------------------------------------------------------------
                       Internal Coordinate Forces (Hartree/Bohr or radian)
  Cent   Atom   N1       Length/X         N2         Alpha/Y        N3         Beta/Z          J
 -----------------------------------------------------------------------------------------------
      1  C 
      2  O        1  -0.000013(     1)
      3  C        1   0.000038(     2)      2   0.000203(    33)
      4  H        3  -0.000004(     3)      1   0.000027(    34)      2  -0.000001(    64)     0
      5  H        3   0.000015(     4)      1   0.000000(    35)      4   0.000000(    65)     0
      6  H        3  -0.000006(     5)      1   0.000027(    36)      4  -0.000026(    66)     0
      7  N        1  -0.000044(     6)      2  -0.003357(    37)      3  -0.000003(    67)     0
      8  C        7   0.000064(     7)      1  -0.003140(    38)      2   0.000001(    68)     0
      9  C        8  -0.000089(     8)      7   0.002853(    39)      1   0.000002(    69)     0
     10  O        9   0.000003(     9)      8   0.000007(    40)      7   0.000001(    70)     0
     11  H        7   0.000013(    10)      1  -0.000009(    41)      8   0.000001(    71)     0
     12  H        8  -0.000011(    11)      7  -0.000012(    42)      9   0.000008(    72)     0
     13  H        8  -0.000005(    12)      7  -0.000012(    43)      9  -0.000010(    73)     0
     14  N        9   0.000060(    13)      8  -0.002513(    44)     10  -0.000003(    74)     0
     15  C       14  -0.000088(    14)      9   0.002152(    45)      8  -0.000001(    75)     0
     16  C       15   0.000089(    15)     14  -0.001789(    46)      9  -0.000002(    76)     0
     17  O       16  -0.000003(    16)     15  -0.000007(    47)     14  -0.000001(    77)     0
     18  H       14  -0.000001(    17)      9  -0.000010(    48)     15   0.000000(    78)     0
     19  H       15  -0.000006(    18)     14   0.000005(    49)     16   0.000001(    79)     0
     20  H       15   0.000000(    19)     14   0.000005(    50)     16  -0.000005(    80)     0
     21  N       16  -0.000075(    20)     15   0.001412(    51)     17   0.000000(    81)     0
     22  C       21   0.000074(    21)     16  -0.001049(    52)     15  -0.000002(    82)     0
     23  C       22  -0.000076(    22)     21   0.000692(    53)     16  -0.000003(    83)     0
     24  O       23  -0.000015(    23)     22  -0.000019(    54)     21  -0.000004(    84)     0
     25  H       21  -0.000002(    24)     16   0.000007(    55)     22   0.000003(    85)     0
     26  H       22   0.000002(    25)     21  -0.000001(    56)     23  -0.000012(    86)     0
     27  H       22   0.000007(    26)     21   0.000000(    57)     23   0.000012(    87)     0
     28  N       23   0.000039(    27)     22  -0.000442(    58)     24   0.000002(    88)     0
     29  C       28  -0.000035(    28)     23   0.000224(    59)     22   0.000002(    89)     0
     30  H       28   0.000014(    29)     23  -0.000005(    60)     29   0.000002(    90)     0
     31  H       29  -0.000013(    30)     28  -0.000020(    61)     23  -0.000001(    91)     0
     32  H       29  -0.000012(    31)     28  -0.000012(    62)     31   0.000028(    92)     0
     33  H       29   0.000014(    32)     28  -0.000023(    63)     31  -0.000001(    93)     0
 -----------------------------------------------------------------------------------------------
 Internal  Forces:  Max     0.003356877 RMS     0.000713411
 Leave Link  716 at Fri Feb 17 11:41:54 2023, MaxMem=    33554432 cpu:         1.3
 (Enter /hits/basement/its/doserbd/software/gaussian/g09d1/g09/l103.exe)

 GradGradGradGradGradGradGradGradGradGradGradGradGradGradGradGradGradGrad
 Berny optimization.
 Search for a local minimum.
 Step number   1 out of a maximum of    2
 All quantities printed in internal units (Hartrees-Bohrs-Radians)
 Second derivative matrix not updated -- first step.
 ITU=  0
     Eigenvalues ---    0.01646   0.01768   0.01821   0.02232   0.03012
     Eigenvalues ---    0.03225   0.03311   0.03404   0.04376   0.04736
     Eigenvalues ---    0.04994   0.05133   0.07082   0.07321   0.07431
     Eigenvalues ---    0.08055   0.08717   0.10354   0.11511   0.11580
     Eigenvalues ---    0.11758   0.13294   0.13743   0.17003   0.17214
     Eigenvalues ---    0.17218   0.17231   0.17913   0.18198   0.18670
     Eigenvalues ---    0.19879   0.19879   0.19879   0.19879   0.23347
     Eigenvalues ---    0.23982   0.24092   0.24108   0.24124   0.25000
     Eigenvalues ---    0.25000   0.25000   0.25000   0.29222   0.29437
     Eigenvalues ---    0.29481   0.30355   0.32922   0.33268   0.33598
     Eigenvalues ---    0.33599   0.33628   0.33630   0.33646   0.33647
     Eigenvalues ---    0.34039   0.34039   0.34070   0.34070   0.34172
     Eigenvalues ---    0.34416   0.36260   0.36449   0.36469   0.36650
     Eigenvalues ---    0.38241   0.38249   0.38427   0.39210   0.39946
     Eigenvalues ---    0.43145   0.43164   0.43193   0.44984   0.45230
     Eigenvalues ---    0.45423   0.46119   0.53121   0.53121   0.53121
     Eigenvalues ---    0.53121   0.53359   0.54482   0.55103   0.55365
     Eigenvalues ---    0.75000   0.75000   0.75000   0.75000   0.83525
     Eigenvalues ---    0.83604   0.83970   0.84621
 Angle between quadratic step and forces=  26.00 degrees.
 Linear search not attempted -- first point.
 Variable       Old X    -DE/DX   Delta X   Delta X   Delta X     New X
                                 (Linear)    (Quad)   (Total)
    R2        2.35843  -0.00001   0.00000  -0.00002  -0.00002   2.35842
    R3        2.87260   0.00004   0.00000   0.00012   0.00012   2.87273
    R4        2.07264   0.00000   0.00000  -0.00001  -0.00001   2.07262
    R5        2.07040   0.00002   0.00000   0.00004   0.00004   2.07045
    R6        2.07264  -0.00001   0.00000  -0.00002  -0.00002   2.07262
    R7        2.56620  -0.00004   0.00000  -0.00008  -0.00008   2.56612
    R8        2.73748   0.00006   0.00000   0.00017   0.00017   2.73765
    R9        2.89010  -0.00009   0.00000  -0.00030  -0.00030   2.88979
   R10        2.36068   0.00000   0.00000   0.00000   0.00000   2.36069
   R11        1.91488   0.00001   0.00000   0.00003   0.00003   1.91491
   R12        2.08014  -0.00001   0.00000  -0.00003  -0.00003   2.08011
   R13        2.08012  -0.00001   0.00000  -0.00002  -0.00002   2.08011
   R14        2.55040   0.00006   0.00000   0.00011   0.00011   2.55051
   R15        2.74016  -0.00009   0.00000  -0.00023  -0.00023   2.73993
   R16        2.89101   0.00009   0.00000   0.00030   0.00030   2.89132
   R17        2.36029   0.00000   0.00000   0.00000   0.00000   2.36028
   R18        1.91710   0.00000   0.00000   0.00000   0.00000   1.91710
   R19        2.07931  -0.00001   0.00000  -0.00002  -0.00002   2.07930
   R20        2.07930   0.00000   0.00000   0.00000   0.00000   2.07930
   R21        2.54809  -0.00008   0.00000  -0.00014  -0.00014   2.54795
   R22        2.74005   0.00007   0.00000   0.00019   0.00019   2.74024
   R23        2.89542  -0.00008   0.00000  -0.00026  -0.00026   2.89516
   R24        2.35516  -0.00001   0.00000  -0.00002  -0.00002   2.35514
   R25        1.91994   0.00000   0.00000  -0.00001  -0.00001   1.91994
   R26        2.07962   0.00000   0.00000   0.00001   0.00001   2.07962
   R27        2.07959   0.00001   0.00000   0.00002   0.00002   2.07961
   R28        2.55595   0.00004   0.00000   0.00007   0.00007   2.55603
   R29        2.76377  -0.00004   0.00000  -0.00010  -0.00010   2.76367
   R30        1.90698   0.00001   0.00000   0.00003   0.00003   1.90701
   R31        2.07212  -0.00001   0.00000  -0.00004  -0.00004   2.07208
   R32        2.07212  -0.00001   0.00000  -0.00003  -0.00003   2.07208
   R33        2.06633   0.00001   0.00000   0.00004   0.00004   2.06637
    A3        2.12729   0.00020   0.00000   0.00502   0.00502   2.13231
    A4        1.89887   0.00003   0.00000   0.00014   0.00014   1.89901
    A5        1.96946   0.00000   0.00000  -0.00012  -0.00012   1.96934
    A6        1.89886   0.00003   0.00000   0.00014   0.00014   1.89900
    A7        2.12095  -0.00336   0.00000  -0.00922  -0.00922   2.11173
    A8        2.11779  -0.00314   0.00000  -0.00950  -0.00950   2.10828
    A9        1.88641   0.00285   0.00000   0.00988   0.00988   1.89629
   A10        2.11937   0.00001   0.00000   0.00337   0.00337   2.12273
   A11        2.15046  -0.00001   0.00000   0.00472   0.00472   2.15518
   A12        1.93084  -0.00001   0.00000  -0.00210  -0.00210   1.92874
   A13        1.93085  -0.00001   0.00000  -0.00211  -0.00211   1.92875
   A14        2.02634  -0.00251   0.00000  -0.00671  -0.00671   2.01963
   A15        2.12044   0.00215   0.00000   0.00654   0.00654   2.12698
   A16        1.88821  -0.00179   0.00000  -0.00621  -0.00621   1.88200
   A17        2.11866  -0.00001   0.00000  -0.00190  -0.00190   2.11676
   A18        2.14313  -0.00001   0.00000  -0.00330  -0.00330   2.13983
   A19        1.92966   0.00001   0.00000   0.00132   0.00132   1.93098
   A20        1.92967   0.00001   0.00000   0.00131   0.00131   1.93098
   A21        2.02381   0.00141   0.00000   0.00377   0.00377   2.02759
   A22        2.12196  -0.00105   0.00000  -0.00319  -0.00319   2.11877
   A23        1.87996   0.00069   0.00000   0.00242   0.00242   1.88238
   A24        2.11186  -0.00002   0.00000   0.00054   0.00054   2.11240
   A25        2.15211   0.00001   0.00000   0.00162   0.00162   2.15373
   A26        1.92839   0.00000   0.00000  -0.00051  -0.00051   1.92788
   A27        1.92832   0.00000   0.00000  -0.00051  -0.00051   1.92781
   A28        2.02854  -0.00044   0.00000  -0.00115  -0.00115   2.02739
   A29        2.11481   0.00022   0.00000   0.00069   0.00069   2.11550
   A30        2.09176  -0.00001   0.00000  -0.00036  -0.00036   2.09140
   A31        1.92746  -0.00002   0.00000  -0.00003  -0.00003   1.92743
   A32        1.92741  -0.00001   0.00000   0.00001   0.00001   1.92742
   A33        1.89956  -0.00002   0.00000  -0.00016  -0.00016   1.89940
    D4        1.02168   0.00000   0.00000   0.00005   0.00005   1.02174
    D5        2.11991   0.00000   0.00000  -0.00012  -0.00012   2.11979
    D6       -2.04336  -0.00003   0.00000  -0.00024  -0.00024  -2.04360
    D7       -3.14158   0.00000   0.00000  -0.00006  -0.00006  -3.14164
    D8        0.00001   0.00000   0.00000   0.00003   0.00003   0.00004
    D9        3.14158   0.00000   0.00000   0.00005   0.00005   3.14163
   D10       -0.00009   0.00000   0.00000   0.00004   0.00004  -0.00004
   D11        3.14154   0.00000   0.00000   0.00001   0.00001   3.14155
   D12       -2.10977   0.00001   0.00000  -0.00233  -0.00233  -2.11210
   D13        2.10979  -0.00001   0.00000   0.00230   0.00230   2.11209
   D14       -3.14159   0.00000   0.00000  -0.00004  -0.00004  -3.14163
   D15       -3.14157   0.00000   0.00000   0.00002   0.00002  -3.14156
   D16        3.14156   0.00000   0.00000  -0.00004  -0.00004   3.14153
   D17        0.00027   0.00000   0.00000  -0.00008  -0.00008   0.00019
   D18       -3.14153   0.00000   0.00000  -0.00001  -0.00001  -3.14154
   D19       -2.10801   0.00000   0.00000   0.00146   0.00146  -2.10654
   D20        2.10803   0.00000   0.00000  -0.00149  -0.00149   2.10654
   D21        3.14159   0.00000   0.00000   0.00003   0.00003   3.14161
   D22        3.14159   0.00000   0.00000  -0.00005  -0.00005   3.14154
   D23       -3.14110   0.00000   0.00000  -0.00003  -0.00003  -3.14113
   D24       -0.00017   0.00000   0.00000  -0.00021  -0.00021  -0.00038
   D25       -3.14147   0.00000   0.00000   0.00003   0.00003  -3.14143
   D26       -2.10671  -0.00001   0.00000  -0.00060  -0.00060  -2.10731
   D27        2.10674   0.00001   0.00000   0.00060   0.00060   2.10734
   D28        3.14159   0.00000   0.00000   0.00006   0.00006   3.14165
   D29        3.14157   0.00000   0.00000  -0.00001  -0.00001   3.14156
   D30        3.14153   0.00000   0.00000   0.00001   0.00001   3.14154
   D31       -1.04381   0.00000   0.00000  -0.00013  -0.00013  -1.04394
   D32        2.08740   0.00003   0.00000   0.00023   0.00023   2.08763
   D33       -2.09790   0.00000   0.00000   0.00012   0.00012  -2.09777
         Item               Value     Threshold  Converged?
 Maximum Force            0.003357     0.000450     NO 
 RMS     Force            0.000713     0.000300     NO 
 Maximum Displacement     0.009879     0.001800     NO 
 RMS     Displacement     0.002403     0.001200     NO 
 Predicted change in Energy=-7.164166D-05
 GradGradGradGradGradGradGradGradGradGradGradGradGradGradGradGradGradGrad

 Leave Link  103 at Fri Feb 17 11:41:54 2023, MaxMem=    33554432 cpu:         0.6
 (Enter /hits/basement/its/doserbd/software/gaussian/g09d1/g09/l9999.exe)
 1\1\GINC-HASWELL-110\Force\RBMK\6-31+G\C9H16N4O4\SUCERQDL\17-Feb-2023\
 1\\#P bmk/6-31+g force\\Gaussian input prepared by ASE\\0,1\C\O,1,R2\C
 ,1,R3,2,A3\H,3,R4,1,A4,2,D4,0\H,3,R5,1,A5,4,D5,0\H,3,R6,1,A6,4,D6,0\N,
 1,R7,2,A7,3,D7,0\C,7,R8,1,A8,2,D8,0\C,8,R9,7,A9,1,D9,0\O,9,R10,8,A10,7
 ,D10,0\H,7,R11,1,A11,8,D11,0\H,8,R12,7,A12,9,D12,0\H,8,R13,7,A13,9,D13
 ,0\N,9,R14,8,A14,10,D14,0\C,14,R15,9,A15,8,D15,0\C,15,R16,14,A16,9,D16
 ,0\O,16,R17,15,A17,14,D17,0\H,14,R18,9,A18,15,D18,0\H,15,R19,14,A19,16
 ,D19,0\H,15,R20,14,A20,16,D20,0\N,16,R21,15,A21,17,D21,0\C,21,R22,16,A
 22,15,D22,0\C,22,R23,21,A23,16,D23,0\O,23,R24,22,A24,21,D24,0\H,21,R25
 ,16,A25,22,D25,0\H,22,R26,21,A26,23,D26,0\H,22,R27,21,A27,23,D27,0\N,2
 3,R28,22,A28,24,D28,0\C,28,R29,23,A29,22,D29,0\H,28,R30,23,A30,29,D30,
 0\H,29,R31,28,A31,23,D31,0\H,29,R32,28,A32,31,D32,0\H,29,R33,28,A33,31
 ,D33,0\\R2=1.24802818\R3=1.52011679\R4=1.09679227\R5=1.09560954\R6=1.0
 9679507\R7=1.35797398\R8=1.44861311\R9=1.52937388\R10=1.24922057\R11=1
 .01330967\R12=1.10076242\R13=1.10075249\R14=1.34961446\R15=1.45002915\
 R16=1.52985806\R17=1.24901\R18=1.01448505\R19=1.10032574\R20=1.1003185
 2\R21=1.34838948\R22=1.44997088\R23=1.53219063\R24=1.24629488\R25=1.01
 599072\R26=1.10048658\R27=1.10047221\R28=1.35255242\R29=1.46252173\R30
 =1.00912923\R31=1.09651945\R32=1.09651776\R33=1.09345672\A3=121.884735
 9\A4=108.79705171\A5=112.84155946\A6=108.79689214\A7=121.52167924\A8=1
 21.34014554\A9=108.08345983\A10=121.43067597\A11=123.21203967\A12=110.
 62910478\A13=110.62960907\A14=116.1005186\A15=121.49240222\A16=108.186
 37002\A17=121.39007625\A18=122.79215895\A19=110.56109659\A20=110.56200
 672\A21=115.95585754\A22=121.57938942\A23=107.71404647\A24=121.0006412
 3\A25=123.30692864\A26=110.48837691\A27=110.48479815\A28=116.2269984\A
 29=121.16993224\A30=119.84897387\A31=110.43526092\A32=110.43243686\A33
 =108.83698458\D4=58.53814474\D5=121.46204874\D6=-117.07578468\D7=-179.
 99934779\D8=0.0004484\D9=179.99944533\D10=-0.00494275\D11=179.99677976
 \D12=-120.88071209\D13=120.88197803\D14=-179.99985571\D15=-179.9989883
 7\D16=179.99833679\D17=0.01560521\D18=-179.99652147\D19=-120.77985614\
 D20=120.78100771\D21=179.99964883\D22=179.99965395\D23=-179.97165104\D
 24=-0.00978555\D25=-179.99281135\D26=-120.70558841\D27=120.70727256\D2
 8=180.\D29=179.99886078\D30=179.99646354\D31=-59.8059155\D32=119.59897
 398\D33=-120.20080527\\Version=ES64L-G09RevD.01\State=1-A\HF=-871.8592
 304\RMSD=6.024e-09\RMSF=7.405e-06\Dipole=-3.2667053,-0.0004905,-0.4627
 345\Quadrupole=22.1130598,-1.9274893,-20.1855704,0.0050371,-18.5264157
 ,-0.0049436\PG=C01 [X(C9H16N4O4)]\\@


 DEPRESSION IS WAITING FOR YOUR SHIP TO COME IN,
 AND FINDING OUT IT'S THE TITANIC.
 Job cpu time:       0 days  0 hours  6 minutes  2.4 seconds.
 File lengths (MBytes):  RWF=     71 Int=      0 D2E=      0 Chk=      5 Scr=      1
 Normal termination of Gaussian 09 at Fri Feb 17 11:41:54 2023.
