 Entering Gaussian System, Link 0=g09
 Input=test.com
 Output=test.log
 Initial command:
 /hits/basement/its/doserbd/software/gaussian/g09d1/g09/l1.exe "/hits/basement/mbm/sucerquia/gaussian_scratch/Gau-31524.inp" -scrdir="/hits/basement/mbm/sucerquia/gaussian_scratch/"
 Entering Link 1 = /hits/basement/its/doserbd/software/gaussian/g09d1/g09/l1.exe PID=     31525.
  
 Copyright (c) 1988,1990,1992,1993,1995,1998,2003,2009,2013,
            Gaussian, Inc.  All Rights Reserved.
  
 This is part of the Gaussian(R) 09 program.  It is based on
 the Gaussian(R) 03 system (copyright 2003, Gaussian, Inc.),
 the Gaussian(R) 98 system (copyright 1998, Gaussian, Inc.),
 the Gaussian(R) 94 system (copyright 1995, Gaussian, Inc.),
 the Gaussian 92(TM) system (copyright 1992, Gaussian, Inc.),
 the Gaussian 90(TM) system (copyright 1990, Gaussian, Inc.),
 the Gaussian 88(TM) system (copyright 1988, Gaussian, Inc.),
 the Gaussian 86(TM) system (copyright 1986, Carnegie Mellon
 University), and the Gaussian 82(TM) system (copyright 1983,
 Carnegie Mellon University). Gaussian is a federally registered
 trademark of Gaussian, Inc.
  
 This software contains proprietary and confidential information,
 including trade secrets, belonging to Gaussian, Inc.
  
 This software is provided under written license and may be
 used, copied, transmitted, or stored only in accord with that
 written license.
  
 The following legend is applicable only to US Government
 contracts under FAR:
  
                    RESTRICTED RIGHTS LEGEND
  
 Use, reproduction and disclosure by the US Government is
 subject to restrictions as set forth in subparagraphs (a)
 and (c) of the Commercial Computer Software - Restricted
 Rights clause in FAR 52.227-19.
  
 Gaussian, Inc.
 340 Quinnipiac St., Bldg. 40, Wallingford CT 06492
  
  
 ---------------------------------------------------------------
 Warning -- This program may not be used in any manner that
 competes with the business of Gaussian, Inc. or will provide
 assistance to any competitor of Gaussian, Inc.  The licensee
 of this program is prohibited from giving any competitor of
 Gaussian, Inc. access to this program.  By using this program,
 the user acknowledges that Gaussian, Inc. is engaged in the
 business of creating and licensing software in the field of
 computational chemistry and represents and warrants to the
 licensee that it is not a competitor of Gaussian, Inc. and that
 it will not use this program in any manner prohibited above.
 ---------------------------------------------------------------
  

 Cite this work as:
 Gaussian 09, Revision D.01,
 M. J. Frisch, G. W. Trucks, H. B. Schlegel, G. E. Scuseria, 
 M. A. Robb, J. R. Cheeseman, G. Scalmani, V. Barone, B. Mennucci, 
 G. A. Petersson, H. Nakatsuji, M. Caricato, X. Li, H. P. Hratchian, 
 A. F. Izmaylov, J. Bloino, G. Zheng, J. L. Sonnenberg, M. Hada, 
 M. Ehara, K. Toyota, R. Fukuda, J. Hasegawa, M. Ishida, T. Nakajima, 
 Y. Honda, O. Kitao, H. Nakai, T. Vreven, J. A. Montgomery, Jr., 
 J. E. Peralta, F. Ogliaro, M. Bearpark, J. J. Heyd, E. Brothers, 
 K. N. Kudin, V. N. Staroverov, T. Keith, R. Kobayashi, J. Normand, 
 K. Raghavachari, A. Rendell, J. C. Burant, S. S. Iyengar, J. Tomasi, 
 M. Cossi, N. Rega, J. M. Millam, M. Klene, J. E. Knox, J. B. Cross, 
 V. Bakken, C. Adamo, J. Jaramillo, R. Gomperts, R. E. Stratmann, 
 O. Yazyev, A. J. Austin, R. Cammi, C. Pomelli, J. W. Ochterski, 
 R. L. Martin, K. Morokuma, V. G. Zakrzewski, G. A. Voth, 
 P. Salvador, J. J. Dannenberg, S. Dapprich, A. D. Daniels, 
 O. Farkas, J. B. Foresman, J. V. Ortiz, J. Cioslowski, 
 and D. J. Fox, Gaussian, Inc., Wallingford CT, 2013.
 
 ******************************************
 Gaussian 09:  ES64L-G09RevD.01 24-Apr-2013
                17-Feb-2023 
 ******************************************
 %NProcShared=8
 Will use up to    8 processors via shared memory.
 -------------------
 #P bmk/6-31+g force
 -------------------
 1/10=7,30=1,38=1/1,3;
 2/12=2,17=6,18=5,40=1/2;
 3/5=1,6=6,7=10,11=2,16=1,25=1,30=1,71=1,74=-34/1,2,3;
 4//1;
 5/5=2,38=5/2;
 6/7=2,8=2,9=2,10=2,28=1/1;
 7/29=1/1,2,3,16;
 1/10=7,30=1/3;
 99//99;
 Leave Link    1 at Fri Feb 17 11:45:37 2023, MaxMem=           0 cpu:         0.4
 (Enter /hits/basement/its/doserbd/software/gaussian/g09d1/g09/l101.exe)
 ------------------------------
 Gaussian input prepared by ASE
 ------------------------------
 Symbolic Z-matrix:
 Charge =  0 Multiplicity = 1
 C
 O                    1    R2
 C                    1    R3       2    A3
 H                    3    R4       1    A4       2    D4       0
 H                    3    R5       1    A5       4    D5       0
 H                    3    R6       1    A6       4    D6       0
 N                    1    R7       2    A7       3    D7       0
 C                    7    R8       1    A8       2    D8       0
 C                    8    R9       7    A9       1    D9       0
 O                    9    R10      8    A10      7    D10      0
 H                    7    R11      1    A11      8    D11      0
 H                    8    R12      7    A12      9    D12      0
 H                    8    R13      7    A13      9    D13      0
 N                    9    R14      8    A14      10   D14      0
 C                    14   R15      9    A15      8    D15      0
 C                    15   R16      14   A16      9    D16      0
 O                    16   R17      15   A17      14   D17      0
 H                    14   R18      9    A18      15   D18      0
 H                    15   R19      14   A19      16   D19      0
 H                    15   R20      14   A20      16   D20      0
 N                    16   R21      15   A21      17   D21      0
 C                    21   R22      16   A22      15   D22      0
 C                    22   R23      21   A23      16   D23      0
 O                    23   R24      22   A24      21   D24      0
 H                    21   R25      16   A25      22   D25      0
 H                    22   R26      21   A26      23   D26      0
 H                    22   R27      21   A27      23   D27      0
 N                    23   R28      22   A28      24   D28      0
 C                    28   R29      23   A29      22   D29      0
 H                    28   R30      23   A30      29   D30      0
 H                    29   R31      28   A31      23   D31      0
 H                    29   R32      28   A32      31   D32      0
 H                    29   R33      28   A33      31   D33      0
       Variables:
  R2                    1.24628                  
  R3                    1.61589                  
  R4                    1.09413                  
  R5                    1.09545                  
  R6                    1.09413                  
  R7                    1.40254                  
  R8                    1.50866                  
  R9                    1.58715                  
  R10                   1.24308                  
  R11                   1.01254                  
  R12                   1.09949                  
  R13                   1.09949                  
  R14                   1.39828                  
  R15                   1.50528                  
  R16                   1.59165                  
  R17                   1.24371                  
  R18                   1.01495                  
  R19                   1.09932                  
  R20                   1.09932                  
  R21                   1.396                    
  R22                   1.50513                  
  R23                   1.5999                   
  R24                   1.23921                  
  R25                   1.01465                  
  R26                   1.0995                   
  R27                   1.0995                   
  R28                   1.39602                  
  R29                   1.54744                  
  R30                   1.01264                  
  R31                   1.09352                  
  R32                   1.09375                  
  R33                   1.09375                  
  A3                  115.81107                  
  A4                  106.07543                  
  A5                  113.49859                  
  A6                  106.07546                  
  A7                  118.34513                  
  A8                  120.67746                  
  A9                  115.91684                  
  A10                 119.8574                   
  A11                 122.65413                  
  A12                 108.2985                   
  A13                 108.29852                  
  A14                 118.71506                  
  A15                 123.92532                  
  A16                 113.73298                  
  A17                 118.84624                  
  A18                 121.31677                  
  A19                 108.93915                  
  A20                 108.93915                  
  A21                 119.92347                  
  A22                 122.86878                  
  A23                 115.55337                  
  A24                 119.74692                  
  A25                 121.68502                  
  A26                 108.3919                   
  A27                 108.3919                   
  A28                 116.54292                  
  A29                 130.80639                  
  A30                 115.80614                  
  A31                 107.37225                  
  A32                 108.5146                   
  A33                 108.51462                  
  D4                   58.31839                  
  D5                  121.68141                  
  D6                 -116.63718                  
  D7                  180.                       
  D8                    0.                       
  D9                  179.9999                   
  D10                   0.                       
  D11                 180.                       
  D12                -122.37801                  
  D13                 122.37797                  
  D14                 180.                       
  D15                 180.                       
  D16                 180.                       
  D17                   0.                       
  D18                 180.                       
  D19                -121.63772                  
  D20                 121.63771                  
  D21                 180.                       
  D22                 180.                       
  D23                 180.                       
  D24                   0.                       
  D25                 180.                       
  D26                -121.94289                  
  D27                 121.94292                  
  D28                 180.                       
  D29                 180.                       
  D30                 180.                       
  D31                   0.0002                   
  D32                 119.37993                  
  D33                -119.37993                  
 
 NAtoms=     33 NQM=       33 NQMF=       0 NMMI=      0 NMMIF=      0
                NMic=       0 NMicF=      0.
                    Isotopes and Nuclear Properties:
 (Nuclear quadrupole moments (NQMom) in fm**2, nuclear magnetic moments (NMagM)
  in nuclear magnetons)

  Atom         1           2           3           4           5           6           7           8           9          10
 IAtWgt=          12          16          12           1           1           1          14          12          12          16
 AtmWgt=  12.0000000  15.9949146  12.0000000   1.0078250   1.0078250   1.0078250  14.0030740  12.0000000  12.0000000  15.9949146
 NucSpn=           0           0           0           1           1           1           2           0           0           0
 AtZEff=   0.0000000   0.0000000   0.0000000   0.0000000   0.0000000   0.0000000   0.0000000   0.0000000   0.0000000   0.0000000
 NQMom=    0.0000000   0.0000000   0.0000000   0.0000000   0.0000000   0.0000000   2.0440000   0.0000000   0.0000000   0.0000000
 NMagM=    0.0000000   0.0000000   0.0000000   2.7928460   2.7928460   2.7928460   0.4037610   0.0000000   0.0000000   0.0000000
 AtZNuc=   6.0000000   8.0000000   6.0000000   1.0000000   1.0000000   1.0000000   7.0000000   6.0000000   6.0000000   8.0000000

  Atom        11          12          13          14          15          16          17          18          19          20
 IAtWgt=           1           1           1          14          12          12          16           1           1           1
 AtmWgt=   1.0078250   1.0078250   1.0078250  14.0030740  12.0000000  12.0000000  15.9949146   1.0078250   1.0078250   1.0078250
 NucSpn=           1           1           1           2           0           0           0           1           1           1
 AtZEff=   0.0000000   0.0000000   0.0000000   0.0000000   0.0000000   0.0000000   0.0000000   0.0000000   0.0000000   0.0000000
 NQMom=    0.0000000   0.0000000   0.0000000   2.0440000   0.0000000   0.0000000   0.0000000   0.0000000   0.0000000   0.0000000
 NMagM=    2.7928460   2.7928460   2.7928460   0.4037610   0.0000000   0.0000000   0.0000000   2.7928460   2.7928460   2.7928460
 AtZNuc=   1.0000000   1.0000000   1.0000000   7.0000000   6.0000000   6.0000000   8.0000000   1.0000000   1.0000000   1.0000000

  Atom        21          22          23          24          25          26          27          28          29          30
 IAtWgt=          14          12          12          16           1           1           1          14          12           1
 AtmWgt=  14.0030740  12.0000000  12.0000000  15.9949146   1.0078250   1.0078250   1.0078250  14.0030740  12.0000000   1.0078250
 NucSpn=           2           0           0           0           1           1           1           2           0           1
 AtZEff=   0.0000000   0.0000000   0.0000000   0.0000000   0.0000000   0.0000000   0.0000000   0.0000000   0.0000000   0.0000000
 NQMom=    2.0440000   0.0000000   0.0000000   0.0000000   0.0000000   0.0000000   0.0000000   2.0440000   0.0000000   0.0000000
 NMagM=    0.4037610   0.0000000   0.0000000   0.0000000   2.7928460   2.7928460   2.7928460   0.4037610   0.0000000   2.7928460
 AtZNuc=   7.0000000   6.0000000   6.0000000   8.0000000   1.0000000   1.0000000   1.0000000   7.0000000   6.0000000   1.0000000

  Atom        31          32          33
 IAtWgt=           1           1           1
 AtmWgt=   1.0078250   1.0078250   1.0078250
 NucSpn=           1           1           1
 AtZEff=   0.0000000   0.0000000   0.0000000
 NQMom=    0.0000000   0.0000000   0.0000000
 NMagM=    2.7928460   2.7928460   2.7928460
 AtZNuc=   1.0000000   1.0000000   1.0000000
 Leave Link  101 at Fri Feb 17 11:45:38 2023, MaxMem=    33554432 cpu:         1.5
 (Enter /hits/basement/its/doserbd/software/gaussian/g09d1/g09/l103.exe)

 GradGradGradGradGradGradGradGradGradGradGradGradGradGradGradGradGradGrad
 Berny optimization.
 Initialization pass.
                       ----------------------------
                       !    Initial Parameters    !
                       ! (Angstroms and Degrees)  !
 ----------------------                            ----------------------
 !      Name          Value   Derivative information (Atomic Units)     !
 ------------------------------------------------------------------------
 !       R2          1.2463   estimate D2E/DX2                          !
 !       R3          1.6159   estimate D2E/DX2                          !
 !       R4          1.0941   estimate D2E/DX2                          !
 !       R5          1.0954   estimate D2E/DX2                          !
 !       R6          1.0941   estimate D2E/DX2                          !
 !       R7          1.4025   estimate D2E/DX2                          !
 !       R8          1.5087   estimate D2E/DX2                          !
 !       R9          1.5871   estimate D2E/DX2                          !
 !       R10         1.2431   estimate D2E/DX2                          !
 !       R11         1.0125   estimate D2E/DX2                          !
 !       R12         1.0995   estimate D2E/DX2                          !
 !       R13         1.0995   estimate D2E/DX2                          !
 !       R14         1.3983   estimate D2E/DX2                          !
 !       R15         1.5053   estimate D2E/DX2                          !
 !       R16         1.5916   estimate D2E/DX2                          !
 !       R17         1.2437   estimate D2E/DX2                          !
 !       R18         1.015    estimate D2E/DX2                          !
 !       R19         1.0993   estimate D2E/DX2                          !
 !       R20         1.0993   estimate D2E/DX2                          !
 !       R21         1.396    estimate D2E/DX2                          !
 !       R22         1.5051   estimate D2E/DX2                          !
 !       R23         1.5999   estimate D2E/DX2                          !
 !       R24         1.2392   estimate D2E/DX2                          !
 !       R25         1.0147   estimate D2E/DX2                          !
 !       R26         1.0995   estimate D2E/DX2                          !
 !       R27         1.0995   estimate D2E/DX2                          !
 !       R28         1.396    estimate D2E/DX2                          !
 !       R29         1.5474   estimate D2E/DX2                          !
 !       R30         1.0126   estimate D2E/DX2                          !
 !       R31         1.0935   estimate D2E/DX2                          !
 !       R32         1.0938   estimate D2E/DX2                          !
 !       R33         1.0938   estimate D2E/DX2                          !
 !       A3        115.8111   estimate D2E/DX2                          !
 !       A4        106.0754   estimate D2E/DX2                          !
 !       A5        113.4986   estimate D2E/DX2                          !
 !       A6        106.0755   estimate D2E/DX2                          !
 !       A7        118.3451   estimate D2E/DX2                          !
 !       A8        120.6775   estimate D2E/DX2                          !
 !       A9        115.9168   estimate D2E/DX2                          !
 !       A10       119.8574   estimate D2E/DX2                          !
 !       A11       122.6541   estimate D2E/DX2                          !
 !       A12       108.2985   estimate D2E/DX2                          !
 !       A13       108.2985   estimate D2E/DX2                          !
 !       A14       118.7151   estimate D2E/DX2                          !
 !       A15       123.9253   estimate D2E/DX2                          !
 !       A16       113.733    estimate D2E/DX2                          !
 !       A17       118.8462   estimate D2E/DX2                          !
 !       A18       121.3168   estimate D2E/DX2                          !
 !       A19       108.9391   estimate D2E/DX2                          !
 !       A20       108.9391   estimate D2E/DX2                          !
 !       A21       119.9235   estimate D2E/DX2                          !
 !       A22       122.8688   estimate D2E/DX2                          !
 !       A23       115.5534   estimate D2E/DX2                          !
 !       A24       119.7469   estimate D2E/DX2                          !
 !       A25       121.685    estimate D2E/DX2                          !
 !       A26       108.3919   estimate D2E/DX2                          !
 !       A27       108.3919   estimate D2E/DX2                          !
 !       A28       116.5429   estimate D2E/DX2                          !
 !       A29       130.8064   estimate D2E/DX2                          !
 !       A30       115.8061   estimate D2E/DX2                          !
 !       A31       107.3722   estimate D2E/DX2                          !
 !       A32       108.5146   estimate D2E/DX2                          !
 !       A33       108.5146   estimate D2E/DX2                          !
 !       D4         58.3184   estimate D2E/DX2                          !
 !       D5        121.6814   estimate D2E/DX2                          !
 !       D6       -116.6372   estimate D2E/DX2                          !
 !       D7        180.0      estimate D2E/DX2                          !
 !       D8          0.0      estimate D2E/DX2                          !
 !       D9        179.9999   estimate D2E/DX2                          !
 !       D10         0.0      estimate D2E/DX2                          !
 !       D11       180.0      estimate D2E/DX2                          !
 !       D12      -122.378    estimate D2E/DX2                          !
 !       D13       122.378    estimate D2E/DX2                          !
 !       D14       180.0      estimate D2E/DX2                          !
 !       D15       180.0      estimate D2E/DX2                          !
 !       D16       180.0      estimate D2E/DX2                          !
 !       D17         0.0      estimate D2E/DX2                          !
 !       D18       180.0      estimate D2E/DX2                          !
 !       D19      -121.6377   estimate D2E/DX2                          !
 !       D20       121.6377   estimate D2E/DX2                          !
 !       D21       180.0      estimate D2E/DX2                          !
 !       D22       180.0      estimate D2E/DX2                          !
 !       D23       180.0      estimate D2E/DX2                          !
 !       D24         0.0      estimate D2E/DX2                          !
 !       D25       180.0      estimate D2E/DX2                          !
 !       D26      -121.9429   estimate D2E/DX2                          !
 !       D27       121.9429   estimate D2E/DX2                          !
 !       D28       180.0      estimate D2E/DX2                          !
 !       D29       180.0      estimate D2E/DX2                          !
 !       D30       180.0      estimate D2E/DX2                          !
 !       D31         0.0002   estimate D2E/DX2                          !
 !       D32       119.3799   estimate D2E/DX2                          !
 !       D33      -119.3799   estimate D2E/DX2                          !
 ------------------------------------------------------------------------
 Trust Radius=3.00D-01 FncErr=1.00D-07 GrdErr=1.00D-07
 Number of steps in this run=      2 maximum allowed number of steps=      2.
 GradGradGradGradGradGradGradGradGradGradGradGradGradGradGradGradGradGrad

 Leave Link  103 at Fri Feb 17 11:45:38 2023, MaxMem=    33554432 cpu:         0.1
 (Enter /hits/basement/its/doserbd/software/gaussian/g09d1/g09/l202.exe)
                          Input orientation:                          
 ---------------------------------------------------------------------
 Center     Atomic      Atomic             Coordinates (Angstroms)
 Number     Number       Type             X           Y           Z
 ---------------------------------------------------------------------
      1          6           0        0.000000    0.000000    0.000000
      2          8           0        0.000000    0.000000    1.246279
      3          6           0        1.454680    0.000000   -0.703567
      4          1           0        1.967839   -0.894678   -0.338400
      5          1           0        1.410479   -0.000004   -1.798123
      6          1           0        1.967837    0.894681   -0.338406
      7          7           0       -1.234383    0.000000   -0.665901
      8          6           0       -2.527863    0.000000    0.110606
      9          6           0       -3.857360    0.000002   -0.756272
     10          8           0       -3.786922    0.000004   -1.997350
     11          1           0       -1.310460    0.000000   -1.675575
     12          1           0       -2.536109    0.881601    0.767560
     13          1           0       -2.536111   -0.881604    0.767557
     14          7           0       -5.089913    0.000003   -0.095959
     15          6           0       -6.420287    0.000005   -0.800222
     16          6           0       -7.668143    0.000004    0.187808
     17          8           0       -7.462329    0.000002    1.414375
     18          1           0       -5.145465    0.000001    0.917473
     19          1           0       -6.480444   -0.885268   -1.449206
     20          1           0       -6.480443    0.885280   -1.449203
     21          7           0       -8.965165    0.000006   -0.328471
     22          6           0      -10.191636    0.000006    0.543982
     23          6           0      -11.590660    0.000009   -0.232161
     24          8           0      -11.606373    0.000010   -1.471270
     25          1           0       -9.141009    0.000008   -1.327771
     26          1           0      -10.154347    0.885356    1.194876
     27          1           0      -10.154348   -0.885345    1.194874
     28          7           0      -12.742032    0.000008    0.557283
     29          6           0      -14.238427    0.000010    0.163122
     30          1           0      -12.590073    0.000007    1.558460
     31          1           0      -14.288324    0.000008   -0.929257
     32          1           0      -14.703896   -0.903740    0.566693
     33          1           0      -14.703893    0.903764    0.566689
 ---------------------------------------------------------------------
                    Distance matrix (angstroms):
                    1          2          3          4          5
     1  C    0.000000
     2  O    1.246279   0.000000
     3  C    1.615890   2.432693   0.000000
     4  H    2.188002   2.680308   1.094133   0.000000
     5  H    2.285322   3.355270   1.095448   1.800523   0.000000
     6  H    2.188003   2.680311   1.094133   1.789359   1.800523
     7  N    1.402543   2.275991   2.689327   3.340948   2.877016
     8  C    2.530282   2.771254   4.064914   4.605800   4.376504
     9  C    3.930798   4.346198   5.312302   5.908300   5.369877
    10  O    4.281377   4.986172   5.398914   6.055563   5.201219
    11  H    2.127171   3.202271   2.931007   3.651812   2.723698
    12  H    2.792529   2.727314   4.343712   4.966273   4.789104
    13  H    2.792531   2.727318   4.343714   4.637767   4.789104
    14  N    5.090817   5.263917   6.572738   7.118363   6.719558
    15  C    6.469965   6.738565   7.875560   8.448337   7.894093
    16  C    7.670442   7.740851   9.166267   9.691723   9.293293
    17  O    7.595184   7.464222   9.165082   9.633315   9.436465
    18  H    5.226621   5.155960   6.796300   7.278514   7.096117
    19  H    6.699258   7.074285   8.019095   8.521002   7.948089
    20  H    6.699258   7.074284   8.019094   8.704918   7.948090
    21  N    8.971180   9.102418  10.426594  10.969555  10.479211
    22  C   10.206143  10.215804  11.712944  12.224234  11.836153
    23  C   11.592985  11.684570  13.053855  13.588401  13.095108
    24  O   11.699253  11.920276  13.083596  13.650755  13.020955
    25  H    9.236938   9.496514  10.614060  11.188647  10.561967
    26  H   10.262667  10.193000  11.796502  12.347747  11.978610
    27  H   10.262668  10.193001  11.796502  12.218774  11.978610
    28  N   12.754213  12.760647  14.252592  14.764249  14.347178
    29  C   14.239361  14.279567  15.717022  16.238690  15.771327
    30  H   12.686163  12.593943  14.225746  14.708207  14.397295
    31  H   14.318510  14.452999  15.744622  16.291483  15.722830
    32  H   14.742538  14.747310  16.233604  16.696288  16.312026
    33  H   14.742537  14.747308  16.233602  16.792863  16.312024
                    6          7          8          9         10
     6  H    0.000000
     7  N    3.340946   0.000000
     8  C    4.605799   1.508660   0.000000
     9  C    5.908298   2.624533   1.587148   0.000000
    10  O    6.055559   2.878926   2.455343   1.243075   0.000000
    11  H    3.651809   1.012536   2.161600   2.707733   2.497279
    12  H    4.637765   2.127563   1.099490   2.201133   3.160138
    13  H    4.966276   2.127563   1.099490   2.201132   3.160138
    14  N    7.118361   3.897428   2.570363   1.398285   2.305010
    15  C    8.448334   5.187643   3.997571   2.563304   2.892702
    16  C    9.691721   6.490153   5.140859   3.925984   4.454075
    17  O    9.633313   6.566191   5.103799   4.208029   5.014826
    18  H    7.278513   4.219436   2.739137   2.112022   3.215872
    19  H    8.704916   5.377586   4.340462   2.853846   2.887773
    20  H    8.520997   5.377586   4.340462   2.853846   2.887773
    21  N   10.969552   7.738142   6.452258   5.125689   5.440528
    22  C   12.224231   9.038595   7.676016   6.466352   6.890480
    23  C   13.588398  10.365356   9.069276   7.751040   8.000888
    24  O   13.650751  10.403211   9.215296   7.781930   7.837128
    25  H   11.188644   7.934281   6.767764   5.314467   5.395793
    26  H   12.218772   9.154895   7.753886   6.651532   7.177621
    27  H   12.347745   9.154895   7.753886   6.651532   7.177621
    28  N   14.764246  11.572475  10.223931   8.981249   9.312365
    29  C   16.238687  13.030443  11.710682  10.421701  10.672469
    30  H   14.708205  11.571494  10.165842   9.034282   9.494169
    31  H   16.291480  13.056598  11.806344  10.432399  10.555580
    32  H   16.792862  13.555951  12.218041  10.964230  11.250395
    33  H   16.696283  13.555950  12.218040  10.964228  11.250392
                   11         12         13         14         15
    11  H    0.000000
    12  H    2.871994   0.000000
    13  H    2.871993   1.763205   0.000000
    14  N    4.096273   2.836335   2.836334   0.000000
    15  C    5.184262   4.280420   4.280419   1.505284   0.000000
    16  C    6.625128   5.239379   5.239379   2.593799   1.591649
    17  O    6.884278   5.046110   5.046110   2.812377   2.447507
    18  H    4.629380   2.758338   2.758338   1.014953   2.139076
    19  H    5.250112   4.857331   4.524579   2.132735   1.099322
    20  H    5.250113   4.524580   4.857330   2.132735   1.099322
    21  N    7.772335   6.581128   6.581127   3.882221   2.588233
    22  C    9.154327   7.709363   7.709363   5.141702   4.003742
    23  C   10.381038   9.152133   9.152132   6.502174   5.201485
    24  O   10.297940   9.383989   9.383988   6.660010   5.229321
    25  H    7.838269   6.985150   6.985150   4.234234   2.771396
    26  H    9.340111   7.630213   7.832130   5.300811   4.325212
    27  H    9.340111   7.832130   7.630213   5.300811   4.325212
    28  N   11.647596  10.246087  10.246086   7.679952   6.465855
    29  C   13.058068  11.751034  11.751033   9.152182   7.877268
    30  H   11.734080  10.123484  10.123483   7.680462   6.605273
    31  H   12.999306  11.906761  11.906760   9.236079   7.869095
    32  H   13.609873  12.299708  12.169462   9.679077   8.444133
    33  H   13.609871  12.169462  12.299707   9.679075   8.444131
                   16         17         18         19         20
    16  C    0.000000
    17  O    1.243715   0.000000
    18  H    2.626083   2.369551   0.000000
    19  H    2.207747   3.154029   2.857804   0.000000
    20  H    2.207747   3.154029   2.857804   1.770548   0.000000
    21  N    1.395998   2.301309   4.017771   2.865937   2.865936
    22  C    2.548505   2.864733   5.059973   4.304585   4.304584
    23  C    3.944935   4.444569   6.546923   5.327215   5.327215
    24  O    4.273429   5.049757   6.888354   5.201860   5.201860
    25  H    2.113366   3.215172   4.583175   2.806611   2.806611
    26  H    2.824756   2.842356   5.094085   4.860436   4.526447
    27  H    2.824755   2.842356   5.094085   4.526447   4.860436
    28  N    5.087324   5.348820   7.605102   6.634546   6.634546
    29  C    6.570331   6.890656   9.124199   7.973055   7.973055
    30  H    5.109216   5.129768   7.472152   6.867119   6.867119
    31  H    6.713765   7.217120   9.327502   7.875090   7.875091
    32  H    7.103670   7.346809   9.607465   8.466956   8.653878
    33  H    7.103669   7.346809   9.607465   8.653876   8.466953
                   21         22         23         24         25
    21  N    0.000000
    22  C    1.505126   0.000000
    23  C    2.627261   1.599896   0.000000
    24  O    2.877842   2.462260   1.239209   0.000000
    25  H    1.014654   2.146457   2.683496   2.469537   0.000000
    26  H    2.125696   1.099499   2.209812   3.162365   2.859098
    27  H    2.125696   1.099499   2.209813   3.162365   2.859099
    28  N    3.879342   2.550432   1.396023   2.324812   4.064579
    29  C    5.296127   4.064674   2.677110   3.098217   5.310973
    30  H    4.086621   2.604163   2.050646   3.185425   4.497374
    31  H    5.356956   4.353538   2.786276   2.736173   5.162719
    32  H    5.878019   4.601931   3.338737   3.816373   5.945710
    33  H    5.878018   4.601930   3.338736   3.816370   5.945707
                   26         27         28         29         30
    26  H    0.000000
    27  H    1.770701   0.000000
    28  N    2.808288   2.808288   0.000000
    29  C    4.304424   4.304424   1.547437   0.000000
    30  H    2.617021   2.617021   1.012643   2.159639   0.000000
    31  H    4.731337   4.731336   2.144952   1.093517   3.012107
    32  H    4.928882   4.592748   2.160036   1.093753   2.503719
    33  H    4.592747   4.928883   2.160037   1.093753   2.503721
                   31         32         33
    31  H    0.000000
    32  H    1.796476   0.000000
    33  H    1.796476   1.807503   0.000000
 Stoichiometry    C9H16N4O4
 Framework group  C1[X(C9H16N4O4)]
 Deg. of freedom    93
 Full point group                 C1      NOp   1
 Largest Abelian subgroup         C1      NOp   1
 Largest concise Abelian subgroup C1      NOp   1
                         Standard orientation:                         
 ---------------------------------------------------------------------
 Center     Atomic      Atomic             Coordinates (Angstroms)
 Number     Number       Type             X           Y           Z
 ---------------------------------------------------------------------
      1          6           0        6.257936   -0.297475    0.000001
      2          8           0        6.230705   -1.543457    0.000002
      3          6           0        7.727641    0.374139    0.000001
      4          1           0        8.232700   -0.002154   -0.894676
      5          1           0        7.707367    1.469400   -0.000004
      6          1           0        8.232696   -0.002146    0.894683
      7          7           0        5.038397    0.395238   -0.000001
      8          6           0        3.728259   -0.352822   -0.000001
      9          6           0        2.418021    0.542899   -0.000001
     10          8           0        2.515559    1.782141    0.000000
     11          1           0        4.984399    1.406333   -0.000002
     12          1           0        3.705660   -1.009438    0.881601
     13          1           0        3.705659   -1.009437   -0.881604
     14          7           0        1.171335   -0.090326   -0.000001
     15          6           0       -0.143334    0.642837    0.000000
     16          6           0       -1.412480   -0.317691    0.000000
     17          8           0       -1.233516   -1.548462   -0.000001
     18          1           0        1.093652   -1.102302   -0.000001
     19          1           0       -0.189296    1.292980   -0.885274
     20          1           0       -0.189296    1.292979    0.885274
     21          7           0       -2.697912    0.226804    0.000000
     22          6           0       -3.943153   -0.618642    0.000000
     23          6           0       -5.324885    0.187884    0.000000
     24          8           0       -5.313520    1.427041    0.000001
     25          1           0       -2.851880    1.229708    0.000000
     26          1           0       -3.920095   -1.270195    0.885350
     27          1           0       -3.920095   -1.270194   -0.885351
     28          7           0       -6.493231   -0.576214    0.000000
     29          6           0       -7.980656   -0.149451    0.000001
     30          1           0       -6.363184   -1.580472    0.000000
     31          1           0       -8.006673    0.943757   -0.000003
     32          1           0       -8.454831   -0.542756   -0.903749
     33          1           0       -8.454830   -0.542751    0.903754
 ---------------------------------------------------------------------
 Rotational constants (GHZ):      2.3596364      0.0910412      0.0879026
 Leave Link  202 at Fri Feb 17 11:45:38 2023, MaxMem=    33554432 cpu:         0.1
 (Enter /hits/basement/its/doserbd/software/gaussian/g09d1/g09/l301.exe)
 Standard basis: 6-31+G (6D, 7F)
 Ernie: Thresh=  0.10000D-02 Tol=  0.10000D-05 Strict=F.
 There are   253 symmetry adapted cartesian basis functions of A   symmetry.
 There are   253 symmetry adapted basis functions of A   symmetry.
   253 basis functions,   506 primitive gaussians,   253 cartesian basis functions
    65 alpha electrons       65 beta electrons
       nuclear repulsion energy      1090.6115080823 Hartrees.
 IExCor= 3226 DFT=T Ex+Corr=BMK ExCW=0 ScaHFX=  0.420000
 ScaDFX=  1.000000  1.000000  1.000000  1.000000 ScalE2=  1.000000  1.000000
 IRadAn=      0 IRanWt=     -1 IRanGd=            0 ICorTp=0 IEmpDi=  4
 NAtoms=   33 NActive=   33 NUniq=   33 SFac= 1.00D+00 NAtFMM=   60 NAOKFM=F Big=F
 Integral buffers will be    131072 words long.
 Raffenetti 2 integral format.
 Two-electron integral symmetry is turned on.
 Leave Link  301 at Fri Feb 17 11:45:38 2023, MaxMem=    33554432 cpu:         0.3
 (Enter /hits/basement/its/doserbd/software/gaussian/g09d1/g09/l302.exe)
 NPDir=0 NMtPBC=     1 NCelOv=     1 NCel=       1 NClECP=     1 NCelD=      1
         NCelK=      1 NCelE2=     1 NClLst=     1 CellRange=     0.0.
 One-electron integrals computed using PRISM.
 NBasis=   253 RedAO= T EigKep=  9.62D-06  NBF=   253
 NBsUse=   253 1.00D-06 EigRej= -1.00D+00 NBFU=   253
 Precomputing XC quadrature grid using
 IXCGrd= 4 IRadAn=           0 IRanWt=          -1 IRanGd=           0 AccXCQ= 0.00D+00.
 Generated NRdTot=       0 NPtTot=           0 NUsed=           0 NTot=          32
 NSgBfM=   242   242   242   242   242 MxSgAt=    33 MxSgA2=    33.
 Leave Link  302 at Fri Feb 17 11:45:38 2023, MaxMem=    33554432 cpu:         2.7
 (Enter /hits/basement/its/doserbd/software/gaussian/g09d1/g09/l303.exe)
 DipDrv:  MaxL=1.
 Leave Link  303 at Fri Feb 17 11:45:38 2023, MaxMem=    33554432 cpu:         0.3
 (Enter /hits/basement/its/doserbd/software/gaussian/g09d1/g09/l401.exe)
 ExpMin= 4.38D-02 ExpMax= 5.48D+03 ExpMxC= 8.25D+02 IAcc=2 IRadAn=         4 AccDes= 0.00D+00
 Harris functional with IExCor= 1009 and IRadAn=       4 diagonalized for initial guess.
 HarFok:  IExCor= 1009 AccDes= 0.00D+00 IRadAn=         4 IDoV= 1 UseB2=F ITyADJ=14
 ICtDFT=  3500011 ScaDFX=  1.000000  1.000000  1.000000  1.000000
 FoFCou: FMM=F IPFlag=           0 FMFlag=      100000 FMFlg1=           0
         NFxFlg=           0 DoJE=T BraDBF=F KetDBF=T FulRan=T
         wScrn=  0.000000 ICntrl=     500 IOpCl=  0 I1Cent=   200000004 NGrid=           0
         NMat0=    1 NMatS0=      1 NMatT0=    0 NMatD0=    1 NMtDS0=    0 NMtDT0=    0
 Petite list used in FoFCou.
 Harris En= -871.480844970055    
 JPrj=0 DoOrth=F DoCkMO=F.
 Leave Link  401 at Fri Feb 17 11:45:39 2023, MaxMem=    33554432 cpu:         7.3
 (Enter /hits/basement/its/doserbd/software/gaussian/g09d1/g09/l502.exe)
 Closed shell SCF:
 Using DIIS extrapolation, IDIIS=  1040.
 Integral symmetry usage will be decided dynamically.
 IVT=      214538 IEndB=      214538 NGot=    33554432 MDV=    33420797
 LenX=    33420797 LenY=    33356347
 Requested convergence on RMS density matrix=1.00D-08 within 128 cycles.
 Requested convergence on MAX density matrix=1.00D-06.
 Requested convergence on             energy=1.00D-06.
 No special actions if energy rises.
 Fock matrices will be formed incrementally for  20 cycles.

 Cycle   1  Pass 1  IDiag  1:
 FoFJK:  IHMeth= 1 ICntrl=       0 DoSepK=F KAlg= 0 I1Cent=   0 FoldK=F
 IRaf= 710000000 NMat=   1 IRICut=       1 DoRegI=T DoRafI=F ISym2E= 0.
 FoFCou: FMM=F IPFlag=           0 FMFlag=      100000 FMFlg1=           0
         NFxFlg=           0 DoJE=F BraDBF=F KetDBF=F FulRan=T
         wScrn=  0.000000 ICntrl=       0 IOpCl=  0 I1Cent=           0 NGrid=           0
         NMat0=    1 NMatS0=      1 NMatT0=    0 NMatD0=    1 NMtDS0=    0 NMtDT0=    0
 Symmetry not used in FoFCou.
 E= -871.402427177190    
 DIIS: error= 3.31D-02 at cycle   1 NSaved=   1.
 NSaved= 1 IEnMin= 1 EnMin= -871.402427177190     IErMin= 1 ErrMin= 3.31D-02
 ErrMax= 3.31D-02  0.00D+00 EMaxC= 1.00D-01 BMatC= 4.74D-01 BMatP= 4.74D-01
 IDIUse=3 WtCom= 6.69D-01 WtEn= 3.31D-01
 Coeff-Com:  0.100D+01
 Coeff-En:   0.100D+01
 Coeff:      0.100D+01
 Gap=     0.321 Goal=   None    Shift=    0.000
 GapD=    0.321 DampG=1.000 DampE=0.500 DampFc=0.5000 IDamp=-1.
 Damping current iteration by 5.00D-01
 RMSDP=2.93D-02 MaxDP=1.91D+00              OVMax= 2.87D-01

 Cycle   2  Pass 1  IDiag  1:
 RMSU=  1.16D-02    CP:  1.20D+00
 E= -871.498936895347     Delta-E=       -0.096509718157 Rises=F Damp=T
 DIIS: error= 1.47D-02 at cycle   2 NSaved=   2.
 NSaved= 2 IEnMin= 2 EnMin= -871.498936895347     IErMin= 2 ErrMin= 1.47D-02
 ErrMax= 1.47D-02  0.00D+00 EMaxC= 1.00D-01 BMatC= 7.96D-02 BMatP= 4.74D-01
 IDIUse=3 WtCom= 8.53D-01 WtEn= 1.47D-01
 Coeff-Com:  0.246D+00 0.754D+00
 Coeff-En:   0.373D+00 0.627D+00
 Coeff:      0.264D+00 0.736D+00
 Gap=     0.308 Goal=   None    Shift=    0.000
 RMSDP=1.46D-02 MaxDP=1.24D+00 DE=-9.65D-02 OVMax= 1.44D-01

 Cycle   3  Pass 1  IDiag  1:
 RMSU=  6.26D-03    CP:  9.51D-01  3.98D-01
 E= -871.783644329076     Delta-E=       -0.284707433729 Rises=F Damp=F
 DIIS: error= 1.06D-02 at cycle   3 NSaved=   3.
 NSaved= 3 IEnMin= 3 EnMin= -871.783644329076     IErMin= 3 ErrMin= 1.06D-02
 ErrMax= 1.06D-02  0.00D+00 EMaxC= 1.00D-01 BMatC= 2.68D-02 BMatP= 7.96D-02
 IDIUse=3 WtCom= 8.94D-01 WtEn= 1.06D-01
 Coeff-Com:  0.868D-01 0.374D+00 0.540D+00
 Coeff-En:   0.000D+00 0.000D+00 0.100D+01
 Coeff:      0.776D-01 0.334D+00 0.588D+00
 Gap=     0.317 Goal=   None    Shift=    0.000
 RMSDP=1.62D-03 MaxDP=6.99D-02 DE=-2.85D-01 OVMax= 3.99D-02

 Cycle   4  Pass 1  IDiag  1:
 RMSU=  1.50D-03    CP:  9.57D-01  4.43D-01  1.03D+00
 E= -871.806048334298     Delta-E=       -0.022404005222 Rises=F Damp=F
 DIIS: error= 3.56D-03 at cycle   4 NSaved=   4.
 NSaved= 4 IEnMin= 4 EnMin= -871.806048334298     IErMin= 4 ErrMin= 3.56D-03
 ErrMax= 3.56D-03  0.00D+00 EMaxC= 1.00D-01 BMatC= 3.43D-03 BMatP= 2.68D-02
 IDIUse=3 WtCom= 9.64D-01 WtEn= 3.56D-02
 Coeff-Com:  0.147D-01 0.360D-01 0.268D+00 0.682D+00
 Coeff-En:   0.000D+00 0.000D+00 0.475D-01 0.952D+00
 Coeff:      0.142D-01 0.348D-01 0.260D+00 0.691D+00
 Gap=     0.313 Goal=   None    Shift=    0.000
 RMSDP=5.82D-04 MaxDP=3.12D-02 DE=-2.24D-02 OVMax= 1.04D-02

 Cycle   5  Pass 1  IDiag  1:
 RMSU=  3.14D-04    CP:  9.51D-01  4.12D-01  1.04D+00  8.66D-01
 E= -871.808673589218     Delta-E=       -0.002625254920 Rises=F Damp=F
 DIIS: error= 7.69D-04 at cycle   5 NSaved=   5.
 NSaved= 5 IEnMin= 5 EnMin= -871.808673589218     IErMin= 5 ErrMin= 7.69D-04
 ErrMax= 7.69D-04  0.00D+00 EMaxC= 1.00D-01 BMatC= 2.68D-04 BMatP= 3.43D-03
 IDIUse=3 WtCom= 9.92D-01 WtEn= 7.69D-03
 Coeff-Com:  0.264D-02-0.132D-01 0.907D-01 0.347D+00 0.573D+00
 Coeff-En:   0.000D+00 0.000D+00 0.000D+00 0.000D+00 0.100D+01
 Coeff:      0.262D-02-0.131D-01 0.900D-01 0.344D+00 0.576D+00
 Gap=     0.312 Goal=   None    Shift=    0.000
 RMSDP=2.53D-04 MaxDP=1.82D-02 DE=-2.63D-03 OVMax= 3.35D-03

 Cycle   6  Pass 1  IDiag  1:
 RMSU=  1.33D-04    CP:  9.47D-01  4.04D-01  1.04D+00  8.72D-01  7.61D-01
 E= -871.808913938228     Delta-E=       -0.000240349010 Rises=F Damp=F
 DIIS: error= 2.30D-04 at cycle   6 NSaved=   6.
 NSaved= 6 IEnMin= 6 EnMin= -871.808913938228     IErMin= 6 ErrMin= 2.30D-04
 ErrMax= 2.30D-04  0.00D+00 EMaxC= 1.00D-01 BMatC= 1.81D-05 BMatP= 2.68D-04
 IDIUse=3 WtCom= 9.98D-01 WtEn= 2.30D-03
 Coeff-Com:  0.160D-02-0.895D-02 0.308D-01 0.119D+00 0.268D+00 0.590D+00
 Coeff-En:   0.000D+00 0.000D+00 0.000D+00 0.000D+00 0.000D+00 0.100D+01
 Coeff:      0.160D-02-0.893D-02 0.308D-01 0.119D+00 0.267D+00 0.591D+00
 Gap=     0.313 Goal=   None    Shift=    0.000
 RMSDP=8.55D-05 MaxDP=7.45D-03 DE=-2.40D-04 OVMax= 8.85D-04

 Cycle   7  Pass 1  IDiag  1:
 RMSU=  5.27D-05    CP:  9.46D-01  4.01D-01  1.05D+00  8.63D-01  8.12D-01
                    CP:  8.71D-01
 E= -871.808926372574     Delta-E=       -0.000012434346 Rises=F Damp=F
 DIIS: error= 1.22D-04 at cycle   7 NSaved=   7.
 NSaved= 7 IEnMin= 7 EnMin= -871.808926372574     IErMin= 7 ErrMin= 1.22D-04
 ErrMax= 1.22D-04  0.00D+00 EMaxC= 1.00D-01 BMatC= 4.37D-06 BMatP= 1.81D-05
 IDIUse=3 WtCom= 9.99D-01 WtEn= 1.22D-03
 Coeff-Com:  0.870D-03-0.343D-02 0.279D-04-0.521D-02 0.452D-01 0.351D+00
 Coeff-Com:  0.611D+00
 Coeff-En:   0.000D+00 0.000D+00 0.000D+00 0.000D+00 0.000D+00 0.000D+00
 Coeff-En:   0.100D+01
 Coeff:      0.869D-03-0.343D-02 0.278D-04-0.520D-02 0.452D-01 0.351D+00
 Coeff:      0.612D+00
 Gap=     0.313 Goal=   None    Shift=    0.000
 RMSDP=3.70D-05 MaxDP=2.18D-03 DE=-1.24D-05 OVMax= 3.93D-04

 Cycle   8  Pass 1  IDiag  1:
 RMSU=  2.09D-05    CP:  9.46D-01  3.99D-01  1.05D+00  8.66D-01  8.14D-01
                    CP:  9.50D-01  7.61D-01
 E= -871.808929781452     Delta-E=       -0.000003408878 Rises=F Damp=F
 DIIS: error= 3.07D-05 at cycle   8 NSaved=   8.
 NSaved= 8 IEnMin= 8 EnMin= -871.808929781452     IErMin= 8 ErrMin= 3.07D-05
 ErrMax= 3.07D-05  0.00D+00 EMaxC= 1.00D-01 BMatC= 4.57D-07 BMatP= 4.37D-06
 IDIUse=1 WtCom= 1.00D+00 WtEn= 0.00D+00
 Coeff-Com:  0.308D-03-0.395D-03-0.489D-02-0.240D-01-0.210D-01 0.716D-01
 Coeff-Com:  0.308D+00 0.670D+00
 Coeff:      0.308D-03-0.395D-03-0.489D-02-0.240D-01-0.210D-01 0.716D-01
 Coeff:      0.308D+00 0.670D+00
 Gap=     0.313 Goal=   None    Shift=    0.000
 RMSDP=1.39D-05 MaxDP=7.76D-04 DE=-3.41D-06 OVMax= 1.51D-04

 Cycle   9  Pass 1  IDiag  1:
 RMSU=  5.92D-06    CP:  9.45D-01  3.98D-01  1.05D+00  8.64D-01  8.33D-01
                    CP:  9.24D-01  8.64D-01  1.12D+00
 E= -871.808930222610     Delta-E=       -0.000000441159 Rises=F Damp=F
 DIIS: error= 6.00D-06 at cycle   9 NSaved=   9.
 NSaved= 9 IEnMin= 9 EnMin= -871.808930222610     IErMin= 9 ErrMin= 6.00D-06
 ErrMax= 6.00D-06  0.00D+00 EMaxC= 1.00D-01 BMatC= 1.62D-08 BMatP= 4.57D-07
 IDIUse=1 WtCom= 1.00D+00 WtEn= 0.00D+00
 Coeff-Com: -0.161D-04 0.204D-03-0.627D-03-0.353D-02-0.735D-02-0.277D-01
 Coeff-Com: -0.546D-02 0.162D+00 0.882D+00
 Coeff:     -0.161D-04 0.204D-03-0.627D-03-0.353D-02-0.735D-02-0.277D-01
 Coeff:     -0.546D-02 0.162D+00 0.882D+00
 Gap=     0.313 Goal=   None    Shift=    0.000
 RMSDP=3.15D-06 MaxDP=1.35D-04 DE=-4.41D-07 OVMax= 3.88D-05

 Cycle  10  Pass 1  IDiag  1:
 RMSU=  1.63D-06    CP:  9.45D-01  3.98D-01  1.05D+00  8.64D-01  8.34D-01
                    CP:  9.35D-01  8.71D-01  1.14D+00  9.67D-01
 E= -871.808930242738     Delta-E=       -0.000000020128 Rises=F Damp=F
 DIIS: error= 1.69D-06 at cycle  10 NSaved=  10.
 NSaved=10 IEnMin=10 EnMin= -871.808930242738     IErMin=10 ErrMin= 1.69D-06
 ErrMax= 1.69D-06  0.00D+00 EMaxC= 1.00D-01 BMatC= 1.31D-09 BMatP= 1.62D-08
 IDIUse=1 WtCom= 1.00D+00 WtEn= 0.00D+00
 Coeff-Com: -0.182D-04 0.103D-03-0.796D-04-0.656D-03-0.238D-02-0.143D-01
 Coeff-Com: -0.135D-01 0.464D-01 0.371D+00 0.614D+00
 Coeff:     -0.182D-04 0.103D-03-0.796D-04-0.656D-03-0.238D-02-0.143D-01
 Coeff:     -0.135D-01 0.464D-01 0.371D+00 0.614D+00
 Gap=     0.313 Goal=   None    Shift=    0.000
 RMSDP=5.22D-07 MaxDP=3.46D-05 DE=-2.01D-08 OVMax= 7.76D-06

 Cycle  11  Pass 1  IDiag  1:
 RMSU=  3.93D-07    CP:  9.45D-01  3.98D-01  1.05D+00  8.64D-01  8.34D-01
                    CP:  9.34D-01  8.74D-01  1.14D+00  9.79D-01  9.57D-01
 E= -871.808930243837     Delta-E=       -0.000000001099 Rises=F Damp=F
 DIIS: error= 6.76D-07 at cycle  11 NSaved=  11.
 NSaved=11 IEnMin=11 EnMin= -871.808930243837     IErMin=11 ErrMin= 6.76D-07
 ErrMax= 6.76D-07  0.00D+00 EMaxC= 1.00D-01 BMatC= 2.28D-10 BMatP= 1.31D-09
 IDIUse=1 WtCom= 1.00D+00 WtEn= 0.00D+00
 Coeff-Com: -0.613D-05 0.185D-04 0.661D-04 0.228D-03 0.220D-04-0.244D-02
 Coeff-Com: -0.545D-02-0.357D-02 0.365D-01 0.299D+00 0.675D+00
 Coeff:     -0.613D-05 0.185D-04 0.661D-04 0.228D-03 0.220D-04-0.244D-02
 Coeff:     -0.545D-02-0.357D-02 0.365D-01 0.299D+00 0.675D+00
 Gap=     0.313 Goal=   None    Shift=    0.000
 RMSDP=3.12D-07 MaxDP=2.84D-05 DE=-1.10D-09 OVMax= 4.33D-06

 Cycle  12  Pass 1  IDiag  1:
 RMSU=  1.49D-07    CP:  9.45D-01  3.98D-01  1.05D+00  8.64D-01  8.34D-01
                    CP:  9.34D-01  8.74D-01  1.15D+00  9.86D-01  1.00D+00
                    CP:  7.30D-01
 E= -871.808930243952     Delta-E=       -0.000000000115 Rises=F Damp=F
 DIIS: error= 4.81D-07 at cycle  12 NSaved=  12.
 NSaved=12 IEnMin=12 EnMin= -871.808930243952     IErMin=12 ErrMin= 4.81D-07
 ErrMax= 4.81D-07  0.00D+00 EMaxC= 1.00D-01 BMatC= 4.47D-11 BMatP= 2.28D-10
 IDIUse=1 WtCom= 1.00D+00 WtEn= 0.00D+00
 Coeff-Com: -0.177D-05 0.111D-05 0.487D-04 0.195D-03 0.249D-03-0.448D-04
 Coeff-Com: -0.196D-02-0.684D-02-0.144D-01 0.118D+00 0.396D+00 0.509D+00
 Coeff:     -0.177D-05 0.111D-05 0.487D-04 0.195D-03 0.249D-03-0.448D-04
 Coeff:     -0.196D-02-0.684D-02-0.144D-01 0.118D+00 0.396D+00 0.509D+00
 Gap=     0.313 Goal=   None    Shift=    0.000
 RMSDP=1.01D-07 MaxDP=7.12D-06 DE=-1.15D-10 OVMax= 1.43D-06

 Cycle  13  Pass 1  IDiag  1:
 RMSU=  5.92D-08    CP:  9.45D-01  3.98D-01  1.05D+00  8.64D-01  8.34D-01
                    CP:  9.33D-01  8.74D-01  1.15D+00  9.88D-01  1.00D+00
                    CP:  8.34D-01  7.61D-01
 E= -871.808930244030     Delta-E=       -0.000000000078 Rises=F Damp=F
 DIIS: error= 1.45D-07 at cycle  13 NSaved=  13.
 NSaved=13 IEnMin=13 EnMin= -871.808930244030     IErMin=13 ErrMin= 1.45D-07
 ErrMax= 1.45D-07  0.00D+00 EMaxC= 1.00D-01 BMatC= 3.76D-12 BMatP= 4.47D-11
 IDIUse=1 WtCom= 1.00D+00 WtEn= 0.00D+00
 Coeff-Com: -0.954D-07-0.129D-05 0.175D-04 0.670D-04 0.119D-03 0.237D-03
 Coeff-Com: -0.416D-03-0.301D-02-0.109D-01 0.238D-01 0.116D+00 0.266D+00
 Coeff-Com:  0.608D+00
 Coeff:     -0.954D-07-0.129D-05 0.175D-04 0.670D-04 0.119D-03 0.237D-03
 Coeff:     -0.416D-03-0.301D-02-0.109D-01 0.238D-01 0.116D+00 0.266D+00
 Coeff:      0.608D+00
 Gap=     0.313 Goal=   None    Shift=    0.000
 RMSDP=3.04D-08 MaxDP=1.82D-06 DE=-7.80D-11 OVMax= 4.10D-07

 Cycle  14  Pass 1  IDiag  1:
 RMSU=  1.91D-08    CP:  9.45D-01  3.98D-01  1.05D+00  8.64D-01  8.34D-01
                    CP:  9.33D-01  8.74D-01  1.15D+00  9.89D-01  1.01D+00
                    CP:  8.15D-01  8.19D-01  8.81D-01
 E= -871.808930244034     Delta-E=       -0.000000000004 Rises=F Damp=F
 DIIS: error= 2.64D-08 at cycle  14 NSaved=  14.
 NSaved=14 IEnMin=14 EnMin= -871.808930244034     IErMin=14 ErrMin= 2.64D-08
 ErrMax= 2.64D-08  0.00D+00 EMaxC= 1.00D-01 BMatC= 3.06D-13 BMatP= 3.76D-12
 IDIUse=1 WtCom= 1.00D+00 WtEn= 0.00D+00
 Coeff-Com:  0.257D-06-0.783D-06 0.142D-05 0.198D-05 0.207D-04 0.121D-03
 Coeff-Com:  0.799D-04-0.426D-03-0.292D-02-0.605D-02-0.411D-02 0.455D-01
 Coeff-Com:  0.268D+00 0.700D+00
 Coeff:      0.257D-06-0.783D-06 0.142D-05 0.198D-05 0.207D-04 0.121D-03
 Coeff:      0.799D-04-0.426D-03-0.292D-02-0.605D-02-0.411D-02 0.455D-01
 Coeff:      0.268D+00 0.700D+00
 Gap=     0.313 Goal=   None    Shift=    0.000
 RMSDP=8.26D-09 MaxDP=3.56D-07 DE=-4.09D-12 OVMax= 8.71D-08

 SCF Done:  E(RBMK) =  -871.808930244     A.U. after   14 cycles
            NFock= 14  Conv=0.83D-08     -V/T= 2.0073
 KE= 8.655200960309D+02 PE=-4.216666293917D+03 EE= 1.388725759560D+03
 Leave Link  502 at Fri Feb 17 11:46:14 2023, MaxMem=    33554432 cpu:       281.5
 (Enter /hits/basement/its/doserbd/software/gaussian/g09d1/g09/l601.exe)
 Copying SCF densities to generalized density rwf, IOpCl= 0 IROHF=0.

 **********************************************************************

            Population analysis using the SCF density.

 **********************************************************************

 Orbital symmetries:
       Occupied  (A) (A) (A) (A) (A) (A) (A) (A) (A) (A) (A) (A)
                 (A) (A) (A) (A) (A) (A) (A) (A) (A) (A) (A) (A)
                 (A) (A) (A) (A) (A) (A) (A) (A) (A) (A) (A) (A)
                 (A) (A) (A) (A) (A) (A) (A) (A) (A) (A) (A) (A)
                 (A) (A) (A) (A) (A) (A) (A) (A) (A) (A) (A) (A)
                 (A) (A) (A) (A) (A)
       Virtual   (A) (A) (A) (A) (A) (A) (A) (A) (A) (A) (A) (A)
                 (A) (A) (A) (A) (A) (A) (A) (A) (A) (A) (A) (A)
                 (A) (A) (A) (A) (A) (A) (A) (A) (A) (A) (A) (A)
                 (A) (A) (A) (A) (A) (A) (A) (A) (A) (A) (A) (A)
                 (A) (A) (A) (A) (A) (A) (A) (A) (A) (A) (A) (A)
                 (A) (A) (A) (A) (A) (A) (A) (A) (A) (A) (A) (A)
                 (A) (A) (A) (A) (A) (A) (A) (A) (A) (A) (A) (A)
                 (A) (A) (A) (A) (A) (A) (A) (A) (A) (A) (A) (A)
                 (A) (A) (A) (A) (A) (A) (A) (A) (A) (A) (A) (A)
                 (A) (A) (A) (A) (A) (A) (A) (A) (A) (A) (A) (A)
                 (A) (A) (A) (A) (A) (A) (A) (A) (A) (A) (A) (A)
                 (A) (A) (A) (A) (A) (A) (A) (A) (A) (A) (A) (A)
                 (A) (A) (A) (A) (A) (A) (A) (A) (A) (A) (A) (A)
                 (A) (A) (A) (A) (A) (A) (A) (A) (A) (A) (A) (A)
                 (A) (A) (A) (A) (A) (A) (A) (A) (A) (A) (A) (A)
                 (A) (A) (A) (A) (A) (A) (A) (A)
 The electronic state is 1-A.
 Alpha  occ. eigenvalues --  -19.55221 -19.55155 -19.54142 -19.51720 -14.73814
 Alpha  occ. eigenvalues --  -14.73715 -14.72691 -14.71399 -10.64022 -10.63854
 Alpha  occ. eigenvalues --  -10.62820 -10.60876 -10.56034 -10.55522 -10.54119
 Alpha  occ. eigenvalues --  -10.54005 -10.48919  -1.16747  -1.16366  -1.15461
 Alpha  occ. eigenvalues --   -1.13362  -1.01952  -1.01567  -1.00961  -0.99049
 Alpha  occ. eigenvalues --   -0.84779  -0.82608  -0.80544  -0.78449  -0.76489
 Alpha  occ. eigenvalues --   -0.67303  -0.66107  -0.65671  -0.64267  -0.61821
 Alpha  occ. eigenvalues --   -0.58229  -0.55599  -0.54585  -0.54317  -0.54050
 Alpha  occ. eigenvalues --   -0.52898  -0.52357  -0.52060  -0.51350  -0.51109
 Alpha  occ. eigenvalues --   -0.50163  -0.48684  -0.48254  -0.46862  -0.46141
 Alpha  occ. eigenvalues --   -0.45867  -0.45239  -0.44920  -0.44068  -0.43344
 Alpha  occ. eigenvalues --   -0.42557  -0.40122  -0.33618  -0.32896  -0.32718
 Alpha  occ. eigenvalues --   -0.32026  -0.31777  -0.30970  -0.29532  -0.29369
 Alpha virt. eigenvalues --    0.01896   0.02143   0.02158   0.02953   0.03760
 Alpha virt. eigenvalues --    0.04029   0.04474   0.04854   0.05039   0.05903
 Alpha virt. eigenvalues --    0.06607   0.07314   0.07373   0.07755   0.08916
 Alpha virt. eigenvalues --    0.08928   0.09012   0.09563   0.10365   0.10383
 Alpha virt. eigenvalues --    0.11018   0.11172   0.11953   0.12170   0.12532
 Alpha virt. eigenvalues --    0.12995   0.13459   0.13898   0.14488   0.14970
 Alpha virt. eigenvalues --    0.15576   0.15921   0.16158   0.16601   0.16812
 Alpha virt. eigenvalues --    0.17601   0.18081   0.18541   0.19223   0.19942
 Alpha virt. eigenvalues --    0.20647   0.20684   0.21441   0.21511   0.22076
 Alpha virt. eigenvalues --    0.22598   0.22827   0.23366   0.23459   0.23961
 Alpha virt. eigenvalues --    0.24118   0.25025   0.25412   0.25584   0.25760
 Alpha virt. eigenvalues --    0.26392   0.27039   0.27056   0.27454   0.27718
 Alpha virt. eigenvalues --    0.27723   0.28348   0.28927   0.29076   0.29668
 Alpha virt. eigenvalues --    0.29766   0.30153   0.30366   0.31487   0.31701
 Alpha virt. eigenvalues --    0.32267   0.32627   0.33198   0.33957   0.34129
 Alpha virt. eigenvalues --    0.34346   0.35413   0.35707   0.35851   0.36943
 Alpha virt. eigenvalues --    0.37237   0.37531   0.37884   0.38865   0.39033
 Alpha virt. eigenvalues --    0.39901   0.40627   0.41593   0.42752   0.43240
 Alpha virt. eigenvalues --    0.43999   0.45026   0.45771   0.45882   0.47344
 Alpha virt. eigenvalues --    0.47884   0.49443   0.50004   0.52139   0.52988
 Alpha virt. eigenvalues --    0.54038   0.54836   0.56435   0.58690   0.67172
 Alpha virt. eigenvalues --    0.69795   0.70171   0.70421   0.70468   0.71485
 Alpha virt. eigenvalues --    0.71788   0.73411   0.73582   0.74982   0.77620
 Alpha virt. eigenvalues --    0.78714   0.78921   0.78972   0.80809   0.83804
 Alpha virt. eigenvalues --    0.84280   0.85576   0.85771   0.86955   0.87901
 Alpha virt. eigenvalues --    0.90988   0.92850   0.94881   0.97617   0.98624
 Alpha virt. eigenvalues --    1.00170   1.00596   1.01669   1.02708   1.03025
 Alpha virt. eigenvalues --    1.06605   1.10839   1.10952   1.11333   1.12021
 Alpha virt. eigenvalues --    1.12478   1.13594   1.14518   1.16618   1.16986
 Alpha virt. eigenvalues --    1.18469   1.18874   1.19644   1.20860   1.21626
 Alpha virt. eigenvalues --    1.24240   1.25405   1.28117   1.30234   1.31865
 Alpha virt. eigenvalues --    1.33143   1.34235   1.34926   1.35388   1.36018
 Alpha virt. eigenvalues --    1.36677   1.37732   1.39914   1.40848   1.42514
 Alpha virt. eigenvalues --    1.43744   1.45450   1.46379   1.47522   1.48691
 Alpha virt. eigenvalues --    1.51488   1.52230   1.54577   1.55629   1.58602
 Alpha virt. eigenvalues --    1.60236   1.61556   1.62219   1.63523   1.66326
 Alpha virt. eigenvalues --    1.70234   1.83113   1.86243   1.90224   2.07694
 Alpha virt. eigenvalues --    2.11112   2.12564   2.13368
          Condensed to atoms (all electrons):
               1          2          3          4          5          6
     1  C    6.023811   0.436363  -0.438575  -0.061026  -0.046034  -0.061026
     2  O    0.436363   8.485652  -0.122616  -0.005256   0.006971  -0.005255
     3  C   -0.438575  -0.122616   6.596253   0.419215   0.361502   0.419214
     4  H   -0.061026  -0.005256   0.419215   0.465951  -0.026279  -0.021456
     5  H   -0.046034   0.006971   0.361502  -0.026279   0.530063  -0.026279
     6  H   -0.061026  -0.005255   0.419214  -0.021456  -0.026279   0.465951
     7  N   -0.158980  -0.226437  -0.298100   0.001747   0.008556   0.001747
     8  C   -0.976356  -0.099328  -0.406002  -0.005266   0.001157  -0.005266
     9  C    0.528760   0.075816   0.209412  -0.000480  -0.001607  -0.000480
    10  O    0.013226  -0.000465  -0.000283   0.000004  -0.000011   0.000004
    11  H    0.023225   0.005189   0.016902   0.000025   0.000318   0.000025
    12  H    0.006651   0.001558  -0.000208  -0.000006  -0.000001   0.000019
    13  H    0.006651   0.001558  -0.000208   0.000019  -0.000001  -0.000006
    14  N    0.035672  -0.002426   0.004645  -0.000002   0.000022  -0.000002
    15  C    0.024537  -0.000427   0.007057   0.000003  -0.000002   0.000003
    16  C   -0.016962   0.000877  -0.001704   0.000000  -0.000004   0.000000
    17  O    0.000432  -0.000009   0.000015   0.000000   0.000000   0.000000
    18  H   -0.001056   0.000054  -0.000073   0.000000   0.000000   0.000000
    19  H   -0.000025   0.000000  -0.000003   0.000000   0.000000   0.000000
    20  H   -0.000025   0.000000  -0.000003   0.000000   0.000000   0.000000
    21  N   -0.000154   0.000000  -0.000008   0.000000   0.000000   0.000000
    22  C   -0.000016   0.000003   0.000004   0.000000   0.000000   0.000000
    23  C    0.000025   0.000000   0.000001   0.000000   0.000000   0.000000
    24  O    0.000000   0.000000   0.000000   0.000000   0.000000   0.000000
    25  H    0.000001   0.000000   0.000000   0.000000   0.000000   0.000000
    26  H    0.000000   0.000000   0.000000   0.000000   0.000000   0.000000
    27  H    0.000000   0.000000   0.000000   0.000000   0.000000   0.000000
    28  N    0.000000   0.000000   0.000000   0.000000   0.000000   0.000000
    29  C    0.000000   0.000000   0.000000   0.000000   0.000000   0.000000
    30  H    0.000000   0.000000   0.000000   0.000000   0.000000   0.000000
    31  H    0.000000   0.000000   0.000000   0.000000   0.000000   0.000000
    32  H    0.000000   0.000000   0.000000   0.000000   0.000000   0.000000
    33  H    0.000000   0.000000   0.000000   0.000000   0.000000   0.000000
               7          8          9         10         11         12
     1  C   -0.158980  -0.976356   0.528760   0.013226   0.023225   0.006651
     2  O   -0.226437  -0.099328   0.075816  -0.000465   0.005189   0.001558
     3  C   -0.298100  -0.406002   0.209412  -0.000283   0.016902  -0.000208
     4  H    0.001747  -0.005266  -0.000480   0.000004   0.000025  -0.000006
     5  H    0.008556   0.001157  -0.001607  -0.000011   0.000318  -0.000001
     6  H    0.001747  -0.005266  -0.000480   0.000004   0.000025   0.000019
     7  N    7.862129   0.383882  -0.191749   0.025222   0.258898  -0.049428
     8  C    0.383882  12.599455  -4.870426   0.226408  -0.084896   0.368773
     9  C   -0.191749  -4.870426   9.755363   0.081659   0.034516  -0.037037
    10  O    0.025222   0.226408   0.081659   8.483311   0.008044   0.000552
    11  H    0.258898  -0.084896   0.034516   0.008044   0.302561   0.001924
    12  H   -0.049428   0.368773  -0.037037   0.000552   0.001924   0.482329
    13  H   -0.049428   0.368773  -0.037038   0.000552   0.001924  -0.035353
    14  N    0.011585  -0.685794   0.179385  -0.234822   0.004718   0.013856
    15  C   -0.016029  -0.076168  -1.560862  -0.058203   0.002197   0.000626
    16  C   -0.004533  -0.019341   0.728406   0.035007  -0.000227  -0.000707
    17  O    0.000258  -0.008235   0.031436  -0.000461   0.000002   0.000066
    18  H    0.000197   0.018918   0.010425   0.004231  -0.000008  -0.000030
    19  H    0.000025  -0.002480   0.009608   0.000730   0.000000  -0.000008
    20  H    0.000025  -0.002480   0.009608   0.000730   0.000000   0.000017
    21  N    0.000008  -0.004780   0.067681  -0.000700   0.000000   0.000002
    22  C   -0.000111   0.009470   0.013170   0.000167   0.000001   0.000016
    23  C   -0.000015  -0.001158  -0.026372   0.000293   0.000000   0.000000
    24  O    0.000000  -0.000017   0.000477  -0.000004   0.000000   0.000000
    25  H    0.000000   0.000252  -0.001240   0.000019   0.000000   0.000000
    26  H    0.000000   0.000011  -0.000025   0.000000   0.000000   0.000000
    27  H    0.000000   0.000011  -0.000025   0.000000   0.000000   0.000000
    28  N    0.000000   0.000000  -0.000170   0.000000   0.000000   0.000000
    29  C    0.000000   0.000000  -0.000074   0.000000   0.000000   0.000000
    30  H    0.000000   0.000000   0.000002   0.000000   0.000000   0.000000
    31  H    0.000000   0.000000   0.000000   0.000000   0.000000   0.000000
    32  H    0.000000   0.000000   0.000000   0.000000   0.000000   0.000000
    33  H    0.000000   0.000000   0.000000   0.000000   0.000000   0.000000
              13         14         15         16         17         18
     1  C    0.006651   0.035672   0.024537  -0.016962   0.000432  -0.001056
     2  O    0.001558  -0.002426  -0.000427   0.000877  -0.000009   0.000054
     3  C   -0.000208   0.004645   0.007057  -0.001704   0.000015  -0.000073
     4  H    0.000019  -0.000002   0.000003   0.000000   0.000000   0.000000
     5  H   -0.000001   0.000022  -0.000002  -0.000004   0.000000   0.000000
     6  H   -0.000006  -0.000002   0.000003   0.000000   0.000000   0.000000
     7  N   -0.049428   0.011585  -0.016029  -0.004533   0.000258   0.000197
     8  C    0.368773  -0.685794  -0.076168  -0.019341  -0.008235   0.018918
     9  C   -0.037038   0.179385  -1.560862   0.728406   0.031436   0.010425
    10  O    0.000552  -0.234822  -0.058203   0.035007  -0.000461   0.004231
    11  H    0.001924   0.004718   0.002197  -0.000227   0.000002  -0.000008
    12  H   -0.035353   0.013856   0.000626  -0.000707   0.000066  -0.000030
    13  H    0.482329   0.013856   0.000626  -0.000707   0.000066  -0.000030
    14  N    0.013856   7.842727   0.329275  -0.127791   0.027666   0.269658
    15  C    0.000626   0.329275  12.063727  -3.977105   0.176976  -0.073901
    16  C   -0.000707  -0.127791  -3.977105   8.674401   0.122676   0.015186
    17  O    0.000066   0.027666   0.176976   0.122676   8.484594   0.013625
    18  H   -0.000030   0.269658  -0.073901   0.015186   0.013625   0.292993
    19  H    0.000017  -0.045161   0.348066  -0.018884   0.000536   0.002064
    20  H   -0.000008  -0.045161   0.348066  -0.018884   0.000536   0.002064
    21  N    0.000002   0.007095  -0.728688   0.297109  -0.256686   0.005327
    22  C    0.000016  -0.023768  -0.042818  -1.543013  -0.022393   0.002773
    23  C    0.000000  -0.001507  -0.004969   0.783015   0.007110  -0.000604
    24  O    0.000000   0.000214  -0.007546   0.026058  -0.000463   0.000002
    25  H    0.000000   0.000675   0.019277   0.002606   0.003913  -0.000010
    26  H    0.000000  -0.000034  -0.004313   0.000001   0.000827   0.000000
    27  H    0.000000  -0.000034  -0.004313   0.000001   0.000827   0.000000
    28  N    0.000000  -0.000079  -0.006018   0.042333  -0.000568   0.000000
    29  C    0.000000  -0.000013  -0.001070   0.012243  -0.000153   0.000000
    30  H    0.000000   0.000000   0.000848   0.001291   0.000051   0.000000
    31  H    0.000000   0.000000   0.000033  -0.000199   0.000000   0.000000
    32  H    0.000000   0.000000   0.000005   0.000057   0.000000   0.000000
    33  H    0.000000   0.000000   0.000005   0.000057   0.000000   0.000000
              19         20         21         22         23         24
     1  C   -0.000025  -0.000025  -0.000154  -0.000016   0.000025   0.000000
     2  O    0.000000   0.000000   0.000000   0.000003   0.000000   0.000000
     3  C   -0.000003  -0.000003  -0.000008   0.000004   0.000001   0.000000
     4  H    0.000000   0.000000   0.000000   0.000000   0.000000   0.000000
     5  H    0.000000   0.000000   0.000000   0.000000   0.000000   0.000000
     6  H    0.000000   0.000000   0.000000   0.000000   0.000000   0.000000
     7  N    0.000025   0.000025   0.000008  -0.000111  -0.000015   0.000000
     8  C   -0.002480  -0.002480  -0.004780   0.009470  -0.001158  -0.000017
     9  C    0.009608   0.009608   0.067681   0.013170  -0.026372   0.000477
    10  O    0.000730   0.000730  -0.000700   0.000167   0.000293  -0.000004
    11  H    0.000000   0.000000   0.000000   0.000001   0.000000   0.000000
    12  H   -0.000008   0.000017   0.000002   0.000016   0.000000   0.000000
    13  H    0.000017  -0.000008   0.000002   0.000016   0.000000   0.000000
    14  N   -0.045161  -0.045161   0.007095  -0.023768  -0.001507   0.000214
    15  C    0.348066   0.348066  -0.728688  -0.042818  -0.004969  -0.007546
    16  C   -0.018884  -0.018884   0.297109  -1.543013   0.783015   0.026058
    17  O    0.000536   0.000536  -0.256686  -0.022393   0.007110  -0.000463
    18  H    0.002064   0.002064   0.005327   0.002773  -0.000604   0.000002
    19  H    0.479499  -0.034546   0.012280   0.000849  -0.001420   0.000049
    20  H   -0.034546   0.479499   0.012280   0.000849  -0.001420   0.000049
    21  N    0.012280   0.012280   7.827641   0.264516  -0.151497   0.020800
    22  C    0.000849   0.000849   0.264516  12.298568  -3.977794   0.064832
    23  C   -0.001420  -0.001420  -0.151497  -3.977794   7.922025   0.235598
    24  O    0.000049   0.000049   0.020800   0.064832   0.235598   8.486676
    25  H   -0.000046  -0.000046   0.274489  -0.067764   0.018804   0.012240
    26  H   -0.000008   0.000016  -0.045938   0.323048   0.011262   0.000459
    27  H    0.000016  -0.000008  -0.045938   0.323048   0.011262   0.000459
    28  N    0.000000   0.000000   0.007772  -0.816027   0.487489  -0.233484
    29  C    0.000001   0.000001   0.001580  -0.232674  -0.006915  -0.036213
    30  H    0.000000   0.000000   0.001228   0.040983  -0.034980   0.007053
    31  H    0.000000   0.000000  -0.000102  -0.008784  -0.010560   0.006032
    32  H    0.000000   0.000000  -0.000048   0.006874  -0.002717   0.000436
    33  H    0.000000   0.000000  -0.000048   0.006874  -0.002717   0.000436
              25         26         27         28         29         30
     1  C    0.000001   0.000000   0.000000   0.000000   0.000000   0.000000
     2  O    0.000000   0.000000   0.000000   0.000000   0.000000   0.000000
     3  C    0.000000   0.000000   0.000000   0.000000   0.000000   0.000000
     4  H    0.000000   0.000000   0.000000   0.000000   0.000000   0.000000
     5  H    0.000000   0.000000   0.000000   0.000000   0.000000   0.000000
     6  H    0.000000   0.000000   0.000000   0.000000   0.000000   0.000000
     7  N    0.000000   0.000000   0.000000   0.000000   0.000000   0.000000
     8  C    0.000252   0.000011   0.000011   0.000000   0.000000   0.000000
     9  C   -0.001240  -0.000025  -0.000025  -0.000170  -0.000074   0.000002
    10  O    0.000019   0.000000   0.000000   0.000000   0.000000   0.000000
    11  H    0.000000   0.000000   0.000000   0.000000   0.000000   0.000000
    12  H    0.000000   0.000000   0.000000   0.000000   0.000000   0.000000
    13  H    0.000000   0.000000   0.000000   0.000000   0.000000   0.000000
    14  N    0.000675  -0.000034  -0.000034  -0.000079  -0.000013   0.000000
    15  C    0.019277  -0.004313  -0.004313  -0.006018  -0.001070   0.000848
    16  C    0.002606   0.000001   0.000001   0.042333   0.012243   0.001291
    17  O    0.003913   0.000827   0.000827  -0.000568  -0.000153   0.000051
    18  H   -0.000010   0.000000   0.000000   0.000000   0.000000   0.000000
    19  H   -0.000046  -0.000008   0.000016   0.000000   0.000001   0.000000
    20  H   -0.000046   0.000016  -0.000008   0.000000   0.000001   0.000000
    21  N    0.274489  -0.045938  -0.045938   0.007772   0.001580   0.001228
    22  C   -0.067764   0.323048   0.323048  -0.816027  -0.232674   0.040983
    23  C    0.018804   0.011262   0.011262   0.487489  -0.006915  -0.034980
    24  O    0.012240   0.000459   0.000459  -0.233484  -0.036213   0.007053
    25  H    0.292481   0.002127   0.002127   0.004097   0.001181  -0.000012
    26  H    0.002127   0.484847  -0.036104   0.015014   0.003257  -0.000402
    27  H    0.002127  -0.036104   0.484847   0.015014   0.003257  -0.000402
    28  N    0.004097   0.015014   0.015014   7.730030   0.189455   0.272734
    29  C    0.001181   0.003257   0.003257   0.189455   5.316396  -0.024239
    30  H   -0.000012  -0.000402  -0.000402   0.272734  -0.024239   0.365593
    31  H    0.000000  -0.000006  -0.000006  -0.047737   0.416749   0.002585
    32  H    0.000000  -0.000005   0.000013  -0.045878   0.385254  -0.001124
    33  H    0.000000   0.000013  -0.000005  -0.045878   0.385254  -0.001124
              31         32         33
     1  C    0.000000   0.000000   0.000000
     2  O    0.000000   0.000000   0.000000
     3  C    0.000000   0.000000   0.000000
     4  H    0.000000   0.000000   0.000000
     5  H    0.000000   0.000000   0.000000
     6  H    0.000000   0.000000   0.000000
     7  N    0.000000   0.000000   0.000000
     8  C    0.000000   0.000000   0.000000
     9  C    0.000000   0.000000   0.000000
    10  O    0.000000   0.000000   0.000000
    11  H    0.000000   0.000000   0.000000
    12  H    0.000000   0.000000   0.000000
    13  H    0.000000   0.000000   0.000000
    14  N    0.000000   0.000000   0.000000
    15  C    0.000033   0.000005   0.000005
    16  C   -0.000199   0.000057   0.000057
    17  O    0.000000   0.000000   0.000000
    18  H    0.000000   0.000000   0.000000
    19  H    0.000000   0.000000   0.000000
    20  H    0.000000   0.000000   0.000000
    21  N   -0.000102  -0.000048  -0.000048
    22  C   -0.008784   0.006874   0.006874
    23  C   -0.010560  -0.002717  -0.002717
    24  O    0.006032   0.000436   0.000436
    25  H    0.000000   0.000000   0.000000
    26  H   -0.000006  -0.000005   0.000013
    27  H   -0.000006   0.000013  -0.000005
    28  N   -0.047737  -0.045878  -0.045878
    29  C    0.416749   0.385254   0.385254
    30  H    0.002585  -0.001124  -0.001124
    31  H    0.442040  -0.022701  -0.022701
    32  H   -0.022701   0.505323  -0.034435
    33  H   -0.022701  -0.034435   0.505323
 Mulliken charges:
               1
     1  C    0.660880
     2  O   -0.551825
     3  C   -0.766438
     4  H    0.232808
     5  H    0.191628
     6  H    0.232807
     7  N   -0.559471
     8  C   -0.729118
     9  C    0.991863
    10  O   -0.585213
    11  H    0.424663
    12  H    0.246388
    13  H    0.246388
    14  N   -0.574457
    15  C   -0.758893
    16  C    0.988737
    17  O   -0.582644
    18  H    0.438195
    19  H    0.248840
    20  H    0.248840
    21  N   -0.565222
    22  C   -0.620899
    23  C    0.747762
    24  O   -0.584142
    25  H    0.434830
    26  H    0.245951
    27  H    0.245951
    28  N   -0.568097
    29  C   -0.413278
    30  H    0.369914
    31  H    0.245359
    32  H    0.208947
    33  H    0.208947
 Sum of Mulliken charges =   0.00000
 Mulliken charges with hydrogens summed into heavy atoms:
               1
     1  C    0.660880
     2  O   -0.551825
     3  C   -0.109196
     7  N   -0.134808
     8  C   -0.236342
     9  C    0.991863
    10  O   -0.585213
    14  N   -0.136262
    15  C   -0.261214
    16  C    0.988737
    17  O   -0.582644
    21  N   -0.130392
    22  C   -0.128996
    23  C    0.747762
    24  O   -0.584142
    28  N   -0.198184
    29  C    0.249975
 Electronic spatial extent (au):  <R**2>=          11488.3940
 Charge=              0.0000 electrons
 Dipole moment (field-independent basis, Debye):
    X=             -6.6631    Y=             -0.4037    Z=              0.0000  Tot=              6.6753
 Quadrupole moment (field-independent basis, Debye-Ang):
   XX=            -64.6025   YY=           -118.3790   ZZ=           -101.9320
   XY=             33.4906   XZ=              0.0000   YZ=              0.0000
 Traceless Quadrupole moment (field-independent basis, Debye-Ang):
   XX=             30.3687   YY=            -23.4078   ZZ=             -6.9609
   XY=             33.4906   XZ=              0.0000   YZ=              0.0000
 Octapole moment (field-independent basis, Debye-Ang**2):
  XXX=           -351.8904  YYY=             -1.2967  ZZZ=              0.0000  XYY=            -41.3524
  XXY=              3.6630  XXZ=             -0.0002  XZZ=              1.2185  YZZ=             -2.0899
  YYZ=              0.0000  XYZ=              0.0001
 Hexadecapole moment (field-independent basis, Debye-Ang**3):
 XXXX=         -10565.6656 YYYY=           -659.9945 ZZZZ=           -132.5532 XXXY=           1629.2732
 XXXZ=             -0.0003 YYYX=            106.5149 YYYZ=              0.0000 ZZZX=              0.0001
 ZZZY=              0.0000 XXYY=          -2789.0204 XXZZ=          -2404.3979 YYZZ=           -120.2938
 XXYZ=              0.0003 YYXZ=             -0.0001 ZZXY=             -7.3591
 N-N= 1.090611508082D+03 E-N=-4.216666293117D+03  KE= 8.655200960309D+02
 No NMR shielding tensors so no spin-rotation constants.
 Leave Link  601 at Fri Feb 17 11:46:15 2023, MaxMem=    33554432 cpu:         1.3
 (Enter /hits/basement/its/doserbd/software/gaussian/g09d1/g09/l701.exe)
 Compute integral first derivatives.
 ... and contract with generalized density number  0.
 Leave Link  701 at Fri Feb 17 11:46:15 2023, MaxMem=    33554432 cpu:         1.4
 (Enter /hits/basement/its/doserbd/software/gaussian/g09d1/g09/l702.exe)
 L702 exits ... SP integral derivatives will be done elsewhere.
 Leave Link  702 at Fri Feb 17 11:46:15 2023, MaxMem=    33554432 cpu:         0.1
 (Enter /hits/basement/its/doserbd/software/gaussian/g09d1/g09/l703.exe)
 Compute integral first derivatives, UseDBF=F ICtDFT=           0.
 Integral derivatives from FoFJK, PRISM(SPDF).
 Calling FoFJK, ICntrl=      2127 FMM=F ISym2X=0 I1Cent= 0 IOpClX= 0 NMat=1 NMatS=1 NMatT=0.
 FoFJK:  IHMeth= 1 ICntrl=    2127 DoSepK=F KAlg= 0 I1Cent=   0 FoldK=F
 IRaf=         0 NMat=   1 IRICut=       1 DoRegI=T DoRafI=F ISym2E= 0.
 FoFCou: FMM=F IPFlag=           0 FMFlag=      100000 FMFlg1=         800
         NFxFlg=           0 DoJE=F BraDBF=F KetDBF=F FulRan=T
         wScrn=  0.000000 ICntrl=    2127 IOpCl=  0 I1Cent=           0 NGrid=           0
         NMat0=    1 NMatS0=      1 NMatT0=    0 NMatD0=    1 NMtDS0=    0 NMtDT0=    0
 Symmetry not used in FoFCou.
 Leave Link  703 at Fri Feb 17 11:46:19 2023, MaxMem=    33554432 cpu:        33.7
 (Enter /hits/basement/its/doserbd/software/gaussian/g09d1/g09/l716.exe)
 Dipole        =-2.62145187D+00-1.58831641D-01-2.18145713D-06
 ***** Axes restored to original set *****
 -------------------------------------------------------------------
 Center     Atomic                   Forces (Hartrees/Bohr)
 Number     Number              X              Y              Z
 -------------------------------------------------------------------
      1        6           0.000092026   -0.000000012   -0.000065518
      2        8           0.000008328    0.000000007   -0.000006335
      3        6          -0.045667465   -0.000000011    0.002598183
      4        1          -0.000011440    0.000005846   -0.000004911
      5        1          -0.000008072    0.000000012   -0.000008939
      6        1          -0.000011446   -0.000005843   -0.000004905
      7        7          -0.000003658    0.000000014    0.000006773
      8        6          -0.000000018   -0.000000035   -0.000006023
      9        6           0.000000507    0.000000052    0.000004025
     10        8          -0.000000773   -0.000000014   -0.000000185
     11        1           0.000000260    0.000000011   -0.000000953
     12        1           0.000000074    0.000000117   -0.000000369
     13        1           0.000000117   -0.000000104   -0.000000358
     14        7          -0.000000151   -0.000000006   -0.000002527
     15        6          -0.000000624    0.000000018    0.000005648
     16        6           0.000001369   -0.000000009   -0.000002655
     17        8          -0.000001634    0.000000000   -0.000000152
     18        1           0.000002436    0.000000002   -0.000000994
     19        1          -0.000000268   -0.000000069   -0.000000080
     20        1          -0.000000259    0.000000058   -0.000000080
     21        7          -0.000002962   -0.000000006    0.000002205
     22        6          -0.000001754    0.000000022   -0.000007906
     23        6           0.000017761   -0.000000019   -0.000000623
     24        8           0.000004666    0.000000001    0.000004708
     25        1          -0.000002733    0.000000000    0.000001883
     26        1          -0.000000342    0.000000375    0.000000457
     27        1          -0.000000359   -0.000000372    0.000000437
     28        7          -0.000057775   -0.000000008   -0.000019238
     29        6           0.045647745   -0.000000040   -0.002489549
     30        1          -0.000002668    0.000000005   -0.000000307
     31        1          -0.000001709    0.000000007   -0.000003994
     32        1           0.000000412   -0.000002314    0.000001140
     33        1           0.000000409    0.000002313    0.000001142
 -------------------------------------------------------------------
 Cartesian Forces:  Max     0.045667465 RMS     0.006499573
 -----------------------------------------------------------------------------------------------
                       Internal Coordinate Forces (Hartree/Bohr or radian)
  Cent   Atom   N1       Length/X         N2         Alpha/Y        N3         Beta/Z          J
 -----------------------------------------------------------------------------------------------
      1  C 
      2  O        1  -0.000006(     1)
      3  C        1  -0.042262(     2)      2   0.053677(    33)
      4  H        3  -0.000012(     3)      1  -0.000011(    34)      2   0.000000(    64)     0
      5  H        3   0.000009(     4)      1  -0.000016(    35)      4   0.000000(    65)     0
      6  H        3  -0.000012(     5)      1  -0.000011(    36)      4  -0.000010(    66)     0
      7  N        1  -0.038940(     6)      2   0.053475(    37)      3   0.000000(    67)     0
      8  C        7  -0.040391(     7)      1  -0.009754(    38)      2   0.000000(    68)     0
      9  C        8  -0.036829(     8)      7  -0.051018(    39)      1   0.000000(    69)     0
     10  O        9   0.000000(     9)      8   0.000002(    40)      7   0.000000(    70)     0
     11  H        7   0.000001(    10)      1  -0.000001(    41)      8   0.000000(    71)     0
     12  H        8   0.000000(    11)      7   0.000000(    42)      9   0.000001(    72)     0
     13  H        8   0.000000(    12)      7  -0.000001(    43)      9  -0.000001(    73)     0
     14  N        9  -0.041382(    13)      8  -0.029981(    44)     10   0.000000(    74)     0
     15  C       14  -0.039128(    14)      9  -0.021079(    45)      8   0.000000(    75)     0
     16  C       15  -0.037310(    15)     14  -0.045910(    46)      9   0.000000(    76)     0
     17  O       16   0.000000(    16)     15   0.000004(    47)     14   0.000000(    77)     0
     18  H       14  -0.000001(    17)      9  -0.000005(    48)     15   0.000000(    78)     0
     19  H       15   0.000000(    18)     14   0.000001(    49)     16   0.000000(    79)     0
     20  H       15   0.000000(    19)     14   0.000001(    50)     16   0.000000(    80)     0
     21  N       16  -0.041439(    20)     15  -0.033303(    51)     17   0.000000(    81)     0
     22  C       21  -0.038620(    21)     16  -0.017332(    52)     15   0.000000(    82)     0
     23  C       22  -0.038666(    22)     21  -0.052032(    53)     16   0.000000(    83)     0
     24  O       23  -0.000005(    23)     22  -0.000011(    54)     21   0.000000(    84)     0
     25  H       21  -0.000001(    24)     16   0.000006(    55)     22   0.000000(    85)     0
     26  H       22   0.000001(    25)     21   0.000001(    56)     23   0.000000(    86)     0
     27  H       22   0.000001(    26)     21   0.000001(    57)     23   0.000000(    87)     0
     28  N       23  -0.039017(    27)     22  -0.021500(    58)     24   0.000000(    88)     0
     29  C       28  -0.043507(    28)     23  -0.041039(    59)     22   0.000000(    89)     0
     30  H       28  -0.000001(    29)     23   0.000005(    60)     29   0.000000(    90)     0
     31  H       29   0.000004(    30)     28   0.000003(    61)     23   0.000000(    91)     0
     32  H       29   0.000002(    31)     28  -0.000003(    62)     31  -0.000001(    92)     0
     33  H       29   0.000002(    32)     28  -0.000003(    63)     31   0.000001(    93)     0
 -----------------------------------------------------------------------------------------------
 Internal  Forces:  Max     0.053677233 RMS     0.019999405
 Leave Link  716 at Fri Feb 17 11:46:19 2023, MaxMem=    33554432 cpu:         0.3
 (Enter /hits/basement/its/doserbd/software/gaussian/g09d1/g09/l103.exe)

 GradGradGradGradGradGradGradGradGradGradGradGradGradGradGradGradGradGrad
 Berny optimization.
 Search for a local minimum.
 Step number   1 out of a maximum of    2
 All quantities printed in internal units (Hartrees-Bohrs-Radians)
 Second derivative matrix not updated -- first step.
 ITU=  0
     Eigenvalues ---    0.01068   0.01183   0.01218   0.01232   0.01266
     Eigenvalues ---    0.01352   0.01529   0.01615   0.02762   0.03252
     Eigenvalues ---    0.03338   0.03569   0.05400   0.05632   0.05908
     Eigenvalues ---    0.06131   0.07188   0.07395   0.07613   0.08424
     Eigenvalues ---    0.08463   0.13153   0.13330   0.13486   0.13556
     Eigenvalues ---    0.13658   0.15480   0.17366   0.17574   0.17606
     Eigenvalues ---    0.19879   0.19879   0.19879   0.19881   0.22482
     Eigenvalues ---    0.22729   0.22879   0.23809   0.24393   0.24719
     Eigenvalues ---    0.24781   0.25000   0.25000   0.25000   0.25003
     Eigenvalues ---    0.25189   0.25294   0.27870   0.31122   0.31486
     Eigenvalues ---    0.31731   0.31829   0.31845   0.33738   0.33738
     Eigenvalues ---    0.33739   0.33739   0.33757   0.33757   0.34191
     Eigenvalues ---    0.34339   0.34339   0.34383   0.34383   0.34409
     Eigenvalues ---    0.35478   0.35612   0.35690   0.39717   0.40069
     Eigenvalues ---    0.42782   0.42965   0.43142   0.45153   0.45202
     Eigenvalues ---    0.45202   0.45533   0.45551   0.45906   0.46286
     Eigenvalues ---    0.46290   0.53121   0.53121   0.53121   0.53124
     Eigenvalues ---    0.75000   0.75000   0.75000   0.75003   0.84627
     Eigenvalues ---    0.85603   0.85849   0.87355
 Quadratic step=6.123D-01 exceeds max=3.000D-01 adjusted using Lamda=-2.883D-01.
 Angle between NR and scaled steps=  10.35 degrees.
 Angle between quadratic step and forces=  13.66 degrees.
 Linear search not attempted -- first point.
 Variable       Old X    -DE/DX   Delta X   Delta X   Delta X     New X
                                 (Linear)    (Quad)   (Total)
    R2        2.35513  -0.00001   0.00000  -0.00001  -0.00001   2.35512
    R3        3.05359  -0.04226   0.00000  -0.08197  -0.08197   2.97162
    R4        2.06761  -0.00001   0.00000  -0.00002  -0.00002   2.06759
    R5        2.07010   0.00001   0.00000   0.00001   0.00001   2.07011
    R6        2.06761  -0.00001   0.00000  -0.00002  -0.00002   2.06759
    R7        2.65042  -0.03894   0.00000  -0.05260  -0.05260   2.59782
    R8        2.85095  -0.04039   0.00000  -0.06697  -0.06697   2.78399
    R9        2.99928  -0.03683   0.00000  -0.06878  -0.06878   2.93050
   R10        2.34907   0.00000   0.00000   0.00000   0.00000   2.34907
   R11        1.91342   0.00000   0.00000   0.00000   0.00000   1.91342
   R12        2.07773   0.00000   0.00000   0.00000   0.00000   2.07773
   R13        2.07773   0.00000   0.00000   0.00000   0.00000   2.07773
   R14        2.64238  -0.04138   0.00000  -0.05537  -0.05537   2.58700
   R15        2.84458  -0.03913   0.00000  -0.06451  -0.06451   2.78007
   R16        3.00778  -0.03731   0.00000  -0.07011  -0.07011   2.93768
   R17        2.35028   0.00000   0.00000   0.00000   0.00000   2.35028
   R18        1.91798   0.00000   0.00000   0.00000   0.00000   1.91798
   R19        2.07742   0.00000   0.00000   0.00000   0.00000   2.07742
   R20        2.07742   0.00000   0.00000   0.00000   0.00000   2.07742
   R21        2.63805  -0.04144   0.00000  -0.05517  -0.05517   2.58289
   R22        2.84428  -0.03862   0.00000  -0.06365  -0.06365   2.78062
   R23        3.02337  -0.03867   0.00000  -0.07346  -0.07346   2.94991
   R24        2.34177   0.00000   0.00000   0.00000   0.00000   2.34176
   R25        1.91742   0.00000   0.00000   0.00000   0.00000   1.91742
   R26        2.07775   0.00000   0.00000   0.00000   0.00000   2.07775
   R27        2.07775   0.00000   0.00000   0.00000   0.00000   2.07775
   R28        2.63810  -0.03902   0.00000  -0.05194  -0.05194   2.58616
   R29        2.92423  -0.04351   0.00000  -0.07673  -0.07673   2.84750
   R30        1.91362   0.00000   0.00000   0.00000   0.00000   1.91362
   R31        2.06645   0.00000   0.00000   0.00001   0.00001   2.06645
   R32        2.06689   0.00000   0.00000   0.00000   0.00000   2.06690
   R33        2.06689   0.00000   0.00000   0.00000   0.00000   2.06690
    A3        2.02128   0.05368   0.00000   0.05179   0.05179   2.07307
    A4        1.85137  -0.00001   0.00000  -0.00002  -0.00002   1.85135
    A5        1.98092  -0.00002   0.00000  -0.00004  -0.00004   1.98088
    A6        1.85137  -0.00001   0.00000  -0.00002  -0.00002   1.85135
    A7        2.06551   0.05348   0.00000   0.05141   0.05141   2.11692
    A8        2.10622  -0.00975   0.00000  -0.01487  -0.01487   2.09135
    A9        2.02313  -0.05102   0.00000  -0.08409  -0.08409   1.93904
   A10        2.09191   0.00000   0.00000   0.01341   0.01341   2.10532
   A11        2.14072   0.00000   0.00000   0.00391   0.00391   2.14463
   A12        1.89017   0.00000   0.00000   0.00861   0.00861   1.89878
   A13        1.89017   0.00000   0.00000   0.00861   0.00861   1.89878
   A14        2.07197  -0.02998   0.00000  -0.04229  -0.04229   2.02968
   A15        2.16290  -0.02108   0.00000  -0.03212  -0.03212   2.13079
   A16        1.98501  -0.04591   0.00000  -0.07593  -0.07593   1.90908
   A17        2.07426   0.00000   0.00000   0.01490   0.01490   2.08916
   A18        2.11738   0.00000   0.00000   0.00844   0.00844   2.12582
   A19        1.90135   0.00000   0.00000   0.00743   0.00743   1.90878
   A20        1.90135   0.00000   0.00000   0.00743   0.00743   1.90878
   A21        2.09306  -0.03330   0.00000  -0.04697  -0.04697   2.04609
   A22        2.14446  -0.01733   0.00000  -0.02642  -0.02642   2.11804
   A23        2.01679  -0.05203   0.00000  -0.08591  -0.08591   1.93087
   A24        2.08998  -0.00001   0.00000   0.00960   0.00960   2.09958
   A25        2.12380   0.00001   0.00000   0.00696   0.00696   2.13076
   A26        1.89180   0.00000   0.00000   0.00867   0.00867   1.90047
   A27        1.89180   0.00000   0.00000   0.00867   0.00867   1.90047
   A28        2.03406  -0.02150   0.00000  -0.03032  -0.03032   2.00374
   A29        2.28300  -0.04104   0.00000  -0.06254  -0.06254   2.22046
   A30        2.02120   0.00000   0.00000   0.01646   0.01646   2.03766
   A31        1.87400   0.00000   0.00000  -0.00001  -0.00001   1.87399
   A32        1.89394   0.00000   0.00000   0.00002   0.00002   1.89395
   A33        1.89394   0.00000   0.00000   0.00002   0.00002   1.89395
    D4        1.01785   0.00000   0.00000   0.00000   0.00000   1.01785
    D5        2.12374   0.00000   0.00000  -0.00001  -0.00001   2.12373
    D6       -2.03570  -0.00001   0.00000  -0.00003  -0.00003  -2.03574
    D7        3.14159   0.00000   0.00000   0.00000   0.00000   3.14159
    D8        0.00000   0.00000   0.00000   0.00000   0.00000   0.00000
    D9        3.14159   0.00000   0.00000   0.00000   0.00000   3.14159
   D10        0.00000   0.00000   0.00000   0.00000   0.00000   0.00000
   D11        3.14159   0.00000   0.00000   0.00000   0.00000   3.14159
   D12       -2.13590   0.00000   0.00000   0.00924   0.00924  -2.12666
   D13        2.13590   0.00000   0.00000  -0.00924  -0.00924   2.12666
   D14        3.14159   0.00000   0.00000   0.00000   0.00000   3.14159
   D15        3.14159   0.00000   0.00000   0.00000   0.00000   3.14159
   D16        3.14159   0.00000   0.00000   0.00000   0.00000   3.14159
   D17        0.00000   0.00000   0.00000   0.00000   0.00000   0.00000
   D18        3.14159   0.00000   0.00000   0.00000   0.00000   3.14159
   D19       -2.12298   0.00000   0.00000   0.00851   0.00851  -2.11447
   D20        2.12298   0.00000   0.00000  -0.00851  -0.00851   2.11447
   D21        3.14159   0.00000   0.00000   0.00000   0.00000   3.14159
   D22        3.14159   0.00000   0.00000   0.00000   0.00000   3.14159
   D23        3.14159   0.00000   0.00000   0.00000   0.00000   3.14159
   D24        0.00000   0.00000   0.00000   0.00000   0.00000   0.00000
   D25        3.14159   0.00000   0.00000   0.00000   0.00000   3.14159
   D26       -2.12830   0.00000   0.00000   0.00945   0.00945  -2.11886
   D27        2.12831   0.00000   0.00000  -0.00945  -0.00945   2.11886
   D28        3.14159   0.00000   0.00000   0.00000   0.00000   3.14159
   D29        3.14159   0.00000   0.00000   0.00000   0.00000   3.14159
   D30        3.14159   0.00000   0.00000   0.00000   0.00000   3.14159
   D31        0.00000   0.00000   0.00000   0.00000   0.00000   0.00000
   D32        2.08357   0.00000   0.00000  -0.00004  -0.00004   2.08354
   D33       -2.08357   0.00000   0.00000   0.00004   0.00004  -2.08354
         Item               Value     Threshold  Converged?
 Maximum Force            0.053677     0.000450     NO 
 RMS     Force            0.019999     0.000300     NO 
 Maximum Displacement     0.085915     0.001800     NO 
 RMS     Displacement     0.031116     0.001200     NO 
 Predicted change in Energy=-4.109743D-02
 GradGradGradGradGradGradGradGradGradGradGradGradGradGradGradGradGradGrad

 Leave Link  103 at Fri Feb 17 11:46:19 2023, MaxMem=    33554432 cpu:         0.3
 (Enter /hits/basement/its/doserbd/software/gaussian/g09d1/g09/l9999.exe)
 1\1\GINC-HASWELL-110\Force\RBMK\6-31+G\C9H16N4O4\SUCERQDL\17-Feb-2023\
 1\\#P bmk/6-31+g force\\Gaussian input prepared by ASE\\0,1\C\O,1,R2\C
 ,1,R3,2,A3\H,3,R4,1,A4,2,D4,0\H,3,R5,1,A5,4,D5,0\H,3,R6,1,A6,4,D6,0\N,
 1,R7,2,A7,3,D7,0\C,7,R8,1,A8,2,D8,0\C,8,R9,7,A9,1,D9,0\O,9,R10,8,A10,7
 ,D10,0\H,7,R11,1,A11,8,D11,0\H,8,R12,7,A12,9,D12,0\H,8,R13,7,A13,9,D13
 ,0\N,9,R14,8,A14,10,D14,0\C,14,R15,9,A15,8,D15,0\C,15,R16,14,A16,9,D16
 ,0\O,16,R17,15,A17,14,D17,0\H,14,R18,9,A18,15,D18,0\H,15,R19,14,A19,16
 ,D19,0\H,15,R20,14,A20,16,D20,0\N,16,R21,15,A21,17,D21,0\C,21,R22,16,A
 22,15,D22,0\C,22,R23,21,A23,16,D23,0\O,23,R24,22,A24,21,D24,0\H,21,R25
 ,16,A25,22,D25,0\H,22,R26,21,A26,23,D26,0\H,22,R27,21,A27,23,D27,0\N,2
 3,R28,22,A28,24,D28,0\C,28,R29,23,A29,22,D29,0\H,28,R30,23,A30,29,D30,
 0\H,29,R31,28,A31,23,D31,0\H,29,R32,28,A32,31,D32,0\H,29,R33,28,A33,31
 ,D33,0\\R2=1.24627946\R3=1.61589005\R4=1.09413286\R5=1.0954483\R6=1.09
 413289\R7=1.40254254\R8=1.5086601\R9=1.58714808\R10=1.24307502\R11=1.0
 1253579\R12=1.09948978\R13=1.09948982\R14=1.39828477\R15=1.50528447\R1
 6=1.59164876\R17=1.24371466\R18=1.01495347\R19=1.09932156\R20=1.099321
 58\R21=1.39599752\R22=1.5051262\R23=1.59989611\R24=1.23920872\R25=1.01
 465397\R26=1.09949883\R27=1.09949884\R28=1.39602322\R29=1.5474366\R30=
 1.01264322\R31=1.09351721\R32=1.09375275\R33=1.09375276\A3=115.8110733
 2\A4=106.07542814\A5=113.49858881\A6=106.07545672\A7=118.34512539\A8=1
 20.67746493\A9=115.9168384\A10=119.85740369\A11=122.65412816\A12=108.2
 9850434\A13=108.29852322\A14=118.71505567\A15=123.92532078\A16=113.732
 9763\A17=118.84624467\A18=121.31677293\A19=108.93914555\A20=108.939145
 44\A21=119.92347125\A22=122.86878114\A23=115.5533739\A24=119.74692146\
 A25=121.68501917\A26=108.39189653\A27=108.39189835\A28=116.5429238\A29
 =130.80639479\A30=115.80614431\A31=107.3722458\A32=108.51459781\A33=10
 8.51461822\D4=58.31838533\D5=121.68140599\D6=-116.63717806\D7=180.\D8=
 0.\D9=179.99990099\D10=0.\D11=180.\D12=-122.37801418\D13=122.37796685\
 D14=180.\D15=180.\D16=180.\D17=0.\D18=180.\D19=-121.63772439\D20=121.6
 3771273\D21=180.\D22=180.\D23=180.\D24=0.\D25=180.\D26=-121.94288993\D
 27=121.94292033\D28=180.\D29=180.\D30=180.\D31=0.00020355\D32=119.3799
 2551\D33=-119.37993454\\Version=ES64L-G09RevD.01\State=1-A\HF=-871.808
 9302\RMSD=8.260e-09\RMSF=6.500e-03\Dipole=-2.6173556,-0.0000005,0.2160
 719\Quadrupole=21.4714593,-5.1752269,-16.2962324,-0.0000066,-25.749081
 9,0.0000301\PG=C01 [X(C9H16N4O4)]\\@


 LAW OF COMPENSATION:
      NO CALCULATION IS EVER A COMPLETE FAILURE; IT 
      CAN ALWAYS SERVE AS A BAD EXAMPLE.

                                           -- ANON
 Job cpu time:       0 days  0 hours  5 minutes 32.0 seconds.
 File lengths (MBytes):  RWF=     71 Int=      0 D2E=      0 Chk=      5 Scr=      1
 Normal termination of Gaussian 09 at Fri Feb 17 11:46:19 2023.
