 Entering Gaussian System, Link 0=g09
 Input=test.com
 Output=test.log
 Initial command:
 /hits/basement/its/doserbd/software/gaussian/g09d1/g09/l1.exe "/hits/basement/mbm/sucerquia/gaussian_scratch/Gau-692.inp" -scrdir="/hits/basement/mbm/sucerquia/gaussian_scratch/"
 Entering Link 1 = /hits/basement/its/doserbd/software/gaussian/g09d1/g09/l1.exe PID=       693.
  
 Copyright (c) 1988,1990,1992,1993,1995,1998,2003,2009,2013,
            Gaussian, Inc.  All Rights Reserved.
  
 This is part of the Gaussian(R) 09 program.  It is based on
 the Gaussian(R) 03 system (copyright 2003, Gaussian, Inc.),
 the Gaussian(R) 98 system (copyright 1998, Gaussian, Inc.),
 the Gaussian(R) 94 system (copyright 1995, Gaussian, Inc.),
 the Gaussian 92(TM) system (copyright 1992, Gaussian, Inc.),
 the Gaussian 90(TM) system (copyright 1990, Gaussian, Inc.),
 the Gaussian 88(TM) system (copyright 1988, Gaussian, Inc.),
 the Gaussian 86(TM) system (copyright 1986, Carnegie Mellon
 University), and the Gaussian 82(TM) system (copyright 1983,
 Carnegie Mellon University). Gaussian is a federally registered
 trademark of Gaussian, Inc.
  
 This software contains proprietary and confidential information,
 including trade secrets, belonging to Gaussian, Inc.
  
 This software is provided under written license and may be
 used, copied, transmitted, or stored only in accord with that
 written license.
  
 The following legend is applicable only to US Government
 contracts under FAR:
  
                    RESTRICTED RIGHTS LEGEND
  
 Use, reproduction and disclosure by the US Government is
 subject to restrictions as set forth in subparagraphs (a)
 and (c) of the Commercial Computer Software - Restricted
 Rights clause in FAR 52.227-19.
  
 Gaussian, Inc.
 340 Quinnipiac St., Bldg. 40, Wallingford CT 06492
  
  
 ---------------------------------------------------------------
 Warning -- This program may not be used in any manner that
 competes with the business of Gaussian, Inc. or will provide
 assistance to any competitor of Gaussian, Inc.  The licensee
 of this program is prohibited from giving any competitor of
 Gaussian, Inc. access to this program.  By using this program,
 the user acknowledges that Gaussian, Inc. is engaged in the
 business of creating and licensing software in the field of
 computational chemistry and represents and warrants to the
 licensee that it is not a competitor of Gaussian, Inc. and that
 it will not use this program in any manner prohibited above.
 ---------------------------------------------------------------
  

 Cite this work as:
 Gaussian 09, Revision D.01,
 M. J. Frisch, G. W. Trucks, H. B. Schlegel, G. E. Scuseria, 
 M. A. Robb, J. R. Cheeseman, G. Scalmani, V. Barone, B. Mennucci, 
 G. A. Petersson, H. Nakatsuji, M. Caricato, X. Li, H. P. Hratchian, 
 A. F. Izmaylov, J. Bloino, G. Zheng, J. L. Sonnenberg, M. Hada, 
 M. Ehara, K. Toyota, R. Fukuda, J. Hasegawa, M. Ishida, T. Nakajima, 
 Y. Honda, O. Kitao, H. Nakai, T. Vreven, J. A. Montgomery, Jr., 
 J. E. Peralta, F. Ogliaro, M. Bearpark, J. J. Heyd, E. Brothers, 
 K. N. Kudin, V. N. Staroverov, T. Keith, R. Kobayashi, J. Normand, 
 K. Raghavachari, A. Rendell, J. C. Burant, S. S. Iyengar, J. Tomasi, 
 M. Cossi, N. Rega, J. M. Millam, M. Klene, J. E. Knox, J. B. Cross, 
 V. Bakken, C. Adamo, J. Jaramillo, R. Gomperts, R. E. Stratmann, 
 O. Yazyev, A. J. Austin, R. Cammi, C. Pomelli, J. W. Ochterski, 
 R. L. Martin, K. Morokuma, V. G. Zakrzewski, G. A. Voth, 
 P. Salvador, J. J. Dannenberg, S. Dapprich, A. D. Daniels, 
 O. Farkas, J. B. Foresman, J. V. Ortiz, J. Cioslowski, 
 and D. J. Fox, Gaussian, Inc., Wallingford CT, 2013.
 
 ******************************************
 Gaussian 09:  ES64L-G09RevD.01 24-Apr-2013
                17-Feb-2023 
 ******************************************
 %NProcShared=8
 Will use up to    8 processors via shared memory.
 -------------------
 #P bmk/6-31+g force
 -------------------
 1/10=7,30=1,38=1/1,3;
 2/12=2,17=6,18=5,40=1/2;
 3/5=1,6=6,7=10,11=2,16=1,25=1,30=1,71=1,74=-34/1,2,3;
 4//1;
 5/5=2,38=5/2;
 6/7=2,8=2,9=2,10=2,28=1/1;
 7/29=1/1,2,3,16;
 1/10=7,30=1/3;
 99//99;
 Leave Link    1 at Fri Feb 17 11:49:52 2023, MaxMem=           0 cpu:         0.4
 (Enter /hits/basement/its/doserbd/software/gaussian/g09d1/g09/l101.exe)
 ------------------------------
 Gaussian input prepared by ASE
 ------------------------------
 Symbolic Z-matrix:
 Charge =  0 Multiplicity = 1
 C
 O                    1    R2
 C                    1    R3       2    A3
 H                    3    R4       1    A4       2    D4       0
 H                    3    R5       1    A5       4    D5       0
 H                    3    R6       1    A6       4    D6       0
 N                    1    R7       2    A7       3    D7       0
 C                    7    R8       1    A8       2    D8       0
 C                    8    R9       7    A9       1    D9       0
 O                    9    R10      8    A10      7    D10      0
 H                    7    R11      1    A11      8    D11      0
 H                    8    R12      7    A12      9    D12      0
 H                    8    R13      7    A13      9    D13      0
 N                    9    R14      8    A14      10   D14      0
 C                    14   R15      9    A15      8    D15      0
 C                    15   R16      14   A16      9    D16      0
 O                    16   R17      15   A17      14   D17      0
 H                    14   R18      9    A18      15   D18      0
 H                    15   R19      14   A19      16   D19      0
 H                    15   R20      14   A20      16   D20      0
 N                    16   R21      15   A21      17   D21      0
 C                    21   R22      16   A22      15   D22      0
 C                    22   R23      21   A23      16   D23      0
 O                    23   R24      22   A24      21   D24      0
 H                    21   R25      16   A25      22   D25      0
 H                    22   R26      21   A26      23   D26      0
 H                    22   R27      21   A27      23   D27      0
 N                    23   R28      22   A28      24   D28      0
 C                    28   R29      23   A29      22   D29      0
 H                    28   R30      23   A30      29   D30      0
 H                    29   R31      28   A31      23   D31      0
 H                    29   R32      28   A32      31   D32      0
 H                    29   R33      28   A33      31   D33      0
       Variables:
  R2                    1.23865                  
  R3                    1.80268                  
  R4                    1.09097                  
  R5                    1.09244                  
  R6                    1.09097                  
  R7                    1.44866                  
  R8                    1.57583                  
  R9                    1.67526                  
  R10                   1.23605                  
  R11                   1.0126                   
  R12                   1.09729                  
  R13                   1.09729                  
  R14                   1.44373                  
  R15                   1.57106                  
  R16                   1.67844                  
  R17                   1.23646                  
  R18                   1.01443                  
  R19                   1.09716                  
  R20                   1.09716                  
  R21                   1.44013                  
  R22                   1.57323                  
  R23                   1.69639                  
  R24                   1.23272                  
  R25                   1.01436                  
  R26                   1.0972                   
  R27                   1.0972                   
  R28                   1.43648                  
  R29                   1.67713                  
  R30                   1.01445                  
  R31                   1.09106                  
  R32                   1.09049                  
  R33                   1.09049                  
  A3                  109.87833                  
  A4                  101.74063                  
  A5                  113.63773                  
  A6                  101.7433                   
  A7                  117.17333                  
  A8                  123.18247                  
  A9                  121.01772                  
  A10                 118.05844                  
  A11                 120.66524                  
  A12                 106.6203                   
  A13                 106.62034                  
  A14                 121.74366                  
  A15                 125.56049                  
  A16                 119.64277                  
  A17                 117.40482                  
  A18                 119.75393                  
  A19                 107.06308                  
  A20                 107.06314                  
  A21                 122.15554                  
  A22                 125.36345                  
  A23                 120.91297                  
  A24                 117.80912                  
  A25                 119.81399                  
  A26                 106.67362                  
  A27                 106.67361                  
  A28                 119.29244                  
  A29                 136.4971                   
  A30                 114.22847                  
  A31                 106.38202                  
  A32                 105.26939                  
  A33                 105.2706                   
  D4                   58.06035                  
  D5                  121.92608                  
  D6                 -116.14697                  
  D7                 -179.99937                  
  D8                   -0.0001                   
  D9                  179.99892                  
  D10                  -0.00126                  
  D11                 179.99956                  
  D12                -122.61466                  
  D13                 122.6149                   
  D14                -179.99975                  
  D15                 179.99958                  
  D16                 179.99872                  
  D17                   0.                       
  D18                 179.99985                  
  D19                -122.14888                  
  D20                 122.14865                  
  D21                 179.99983                  
  D22                -179.99953                  
  D23                 179.99979                  
  D24                   0.00079                  
  D25                 179.99994                  
  D26                -122.24459                  
  D27                 122.24419                  
  D28                 179.99962                  
  D29                -179.9994                   
  D30                -179.99976                  
  D31                   0.00914                  
  D32                 119.68556                  
  D33                -119.68605                  
 
 NAtoms=     33 NQM=       33 NQMF=       0 NMMI=      0 NMMIF=      0
                NMic=       0 NMicF=      0.
                    Isotopes and Nuclear Properties:
 (Nuclear quadrupole moments (NQMom) in fm**2, nuclear magnetic moments (NMagM)
  in nuclear magnetons)

  Atom         1           2           3           4           5           6           7           8           9          10
 IAtWgt=          12          16          12           1           1           1          14          12          12          16
 AtmWgt=  12.0000000  15.9949146  12.0000000   1.0078250   1.0078250   1.0078250  14.0030740  12.0000000  12.0000000  15.9949146
 NucSpn=           0           0           0           1           1           1           2           0           0           0
 AtZEff=   0.0000000   0.0000000   0.0000000   0.0000000   0.0000000   0.0000000   0.0000000   0.0000000   0.0000000   0.0000000
 NQMom=    0.0000000   0.0000000   0.0000000   0.0000000   0.0000000   0.0000000   2.0440000   0.0000000   0.0000000   0.0000000
 NMagM=    0.0000000   0.0000000   0.0000000   2.7928460   2.7928460   2.7928460   0.4037610   0.0000000   0.0000000   0.0000000
 AtZNuc=   6.0000000   8.0000000   6.0000000   1.0000000   1.0000000   1.0000000   7.0000000   6.0000000   6.0000000   8.0000000

  Atom        11          12          13          14          15          16          17          18          19          20
 IAtWgt=           1           1           1          14          12          12          16           1           1           1
 AtmWgt=   1.0078250   1.0078250   1.0078250  14.0030740  12.0000000  12.0000000  15.9949146   1.0078250   1.0078250   1.0078250
 NucSpn=           1           1           1           2           0           0           0           1           1           1
 AtZEff=   0.0000000   0.0000000   0.0000000   0.0000000   0.0000000   0.0000000   0.0000000   0.0000000   0.0000000   0.0000000
 NQMom=    0.0000000   0.0000000   0.0000000   2.0440000   0.0000000   0.0000000   0.0000000   0.0000000   0.0000000   0.0000000
 NMagM=    2.7928460   2.7928460   2.7928460   0.4037610   0.0000000   0.0000000   0.0000000   2.7928460   2.7928460   2.7928460
 AtZNuc=   1.0000000   1.0000000   1.0000000   7.0000000   6.0000000   6.0000000   8.0000000   1.0000000   1.0000000   1.0000000

  Atom        21          22          23          24          25          26          27          28          29          30
 IAtWgt=          14          12          12          16           1           1           1          14          12           1
 AtmWgt=  14.0030740  12.0000000  12.0000000  15.9949146   1.0078250   1.0078250   1.0078250  14.0030740  12.0000000   1.0078250
 NucSpn=           2           0           0           0           1           1           1           2           0           1
 AtZEff=   0.0000000   0.0000000   0.0000000   0.0000000   0.0000000   0.0000000   0.0000000   0.0000000   0.0000000   0.0000000
 NQMom=    2.0440000   0.0000000   0.0000000   0.0000000   0.0000000   0.0000000   0.0000000   2.0440000   0.0000000   0.0000000
 NMagM=    0.4037610   0.0000000   0.0000000   0.0000000   2.7928460   2.7928460   2.7928460   0.4037610   0.0000000   2.7928460
 AtZNuc=   7.0000000   6.0000000   6.0000000   8.0000000   1.0000000   1.0000000   1.0000000   7.0000000   6.0000000   1.0000000

  Atom        31          32          33
 IAtWgt=           1           1           1
 AtmWgt=   1.0078250   1.0078250   1.0078250
 NucSpn=           1           1           1
 AtZEff=   0.0000000   0.0000000   0.0000000
 NQMom=    0.0000000   0.0000000   0.0000000
 NMagM=    2.7928460   2.7928460   2.7928460
 AtZNuc=   1.0000000   1.0000000   1.0000000
 Leave Link  101 at Fri Feb 17 11:49:53 2023, MaxMem=    33554432 cpu:         1.1
 (Enter /hits/basement/its/doserbd/software/gaussian/g09d1/g09/l103.exe)

 GradGradGradGradGradGradGradGradGradGradGradGradGradGradGradGradGradGrad
 Berny optimization.
 Initialization pass.
                       ----------------------------
                       !    Initial Parameters    !
                       ! (Angstroms and Degrees)  !
 ----------------------                            ----------------------
 !      Name          Value   Derivative information (Atomic Units)     !
 ------------------------------------------------------------------------
 !       R2          1.2386   estimate D2E/DX2                          !
 !       R3          1.8027   estimate D2E/DX2                          !
 !       R4          1.091    estimate D2E/DX2                          !
 !       R5          1.0924   estimate D2E/DX2                          !
 !       R6          1.091    estimate D2E/DX2                          !
 !       R7          1.4487   estimate D2E/DX2                          !
 !       R8          1.5758   estimate D2E/DX2                          !
 !       R9          1.6753   estimate D2E/DX2                          !
 !       R10         1.2361   estimate D2E/DX2                          !
 !       R11         1.0126   estimate D2E/DX2                          !
 !       R12         1.0973   estimate D2E/DX2                          !
 !       R13         1.0973   estimate D2E/DX2                          !
 !       R14         1.4437   estimate D2E/DX2                          !
 !       R15         1.5711   estimate D2E/DX2                          !
 !       R16         1.6784   estimate D2E/DX2                          !
 !       R17         1.2365   estimate D2E/DX2                          !
 !       R18         1.0144   estimate D2E/DX2                          !
 !       R19         1.0972   estimate D2E/DX2                          !
 !       R20         1.0972   estimate D2E/DX2                          !
 !       R21         1.4401   estimate D2E/DX2                          !
 !       R22         1.5732   estimate D2E/DX2                          !
 !       R23         1.6964   estimate D2E/DX2                          !
 !       R24         1.2327   estimate D2E/DX2                          !
 !       R25         1.0144   estimate D2E/DX2                          !
 !       R26         1.0972   estimate D2E/DX2                          !
 !       R27         1.0972   estimate D2E/DX2                          !
 !       R28         1.4365   estimate D2E/DX2                          !
 !       R29         1.6771   estimate D2E/DX2                          !
 !       R30         1.0144   estimate D2E/DX2                          !
 !       R31         1.0911   estimate D2E/DX2                          !
 !       R32         1.0905   estimate D2E/DX2                          !
 !       R33         1.0905   estimate D2E/DX2                          !
 !       A3        109.8783   estimate D2E/DX2                          !
 !       A4        101.7406   estimate D2E/DX2                          !
 !       A5        113.6377   estimate D2E/DX2                          !
 !       A6        101.7433   estimate D2E/DX2                          !
 !       A7        117.1733   estimate D2E/DX2                          !
 !       A8        123.1825   estimate D2E/DX2                          !
 !       A9        121.0177   estimate D2E/DX2                          !
 !       A10       118.0584   estimate D2E/DX2                          !
 !       A11       120.6652   estimate D2E/DX2                          !
 !       A12       106.6203   estimate D2E/DX2                          !
 !       A13       106.6203   estimate D2E/DX2                          !
 !       A14       121.7437   estimate D2E/DX2                          !
 !       A15       125.5605   estimate D2E/DX2                          !
 !       A16       119.6428   estimate D2E/DX2                          !
 !       A17       117.4048   estimate D2E/DX2                          !
 !       A18       119.7539   estimate D2E/DX2                          !
 !       A19       107.0631   estimate D2E/DX2                          !
 !       A20       107.0631   estimate D2E/DX2                          !
 !       A21       122.1555   estimate D2E/DX2                          !
 !       A22       125.3634   estimate D2E/DX2                          !
 !       A23       120.913    estimate D2E/DX2                          !
 !       A24       117.8091   estimate D2E/DX2                          !
 !       A25       119.814    estimate D2E/DX2                          !
 !       A26       106.6736   estimate D2E/DX2                          !
 !       A27       106.6736   estimate D2E/DX2                          !
 !       A28       119.2924   estimate D2E/DX2                          !
 !       A29       136.4971   estimate D2E/DX2                          !
 !       A30       114.2285   estimate D2E/DX2                          !
 !       A31       106.382    estimate D2E/DX2                          !
 !       A32       105.2694   estimate D2E/DX2                          !
 !       A33       105.2706   estimate D2E/DX2                          !
 !       D4         58.0603   estimate D2E/DX2                          !
 !       D5        121.9261   estimate D2E/DX2                          !
 !       D6       -116.147    estimate D2E/DX2                          !
 !       D7       -179.9994   estimate D2E/DX2                          !
 !       D8         -0.0001   estimate D2E/DX2                          !
 !       D9        179.9989   estimate D2E/DX2                          !
 !       D10        -0.0013   estimate D2E/DX2                          !
 !       D11       179.9996   estimate D2E/DX2                          !
 !       D12      -122.6147   estimate D2E/DX2                          !
 !       D13       122.6149   estimate D2E/DX2                          !
 !       D14      -179.9998   estimate D2E/DX2                          !
 !       D15       179.9996   estimate D2E/DX2                          !
 !       D16       179.9987   estimate D2E/DX2                          !
 !       D17         0.0      estimate D2E/DX2                          !
 !       D18       179.9998   estimate D2E/DX2                          !
 !       D19      -122.1489   estimate D2E/DX2                          !
 !       D20       122.1486   estimate D2E/DX2                          !
 !       D21       179.9998   estimate D2E/DX2                          !
 !       D22      -179.9995   estimate D2E/DX2                          !
 !       D23       179.9998   estimate D2E/DX2                          !
 !       D24         0.0008   estimate D2E/DX2                          !
 !       D25       179.9999   estimate D2E/DX2                          !
 !       D26      -122.2446   estimate D2E/DX2                          !
 !       D27       122.2442   estimate D2E/DX2                          !
 !       D28       179.9996   estimate D2E/DX2                          !
 !       D29      -179.9994   estimate D2E/DX2                          !
 !       D30      -179.9998   estimate D2E/DX2                          !
 !       D31         0.0091   estimate D2E/DX2                          !
 !       D32       119.6856   estimate D2E/DX2                          !
 !       D33      -119.6861   estimate D2E/DX2                          !
 ------------------------------------------------------------------------
 Trust Radius=3.00D-01 FncErr=1.00D-07 GrdErr=1.00D-07
 Number of steps in this run=      2 maximum allowed number of steps=      2.
 GradGradGradGradGradGradGradGradGradGradGradGradGradGradGradGradGradGrad

 Leave Link  103 at Fri Feb 17 11:49:53 2023, MaxMem=    33554432 cpu:         0.1
 (Enter /hits/basement/its/doserbd/software/gaussian/g09d1/g09/l202.exe)
                          Input orientation:                          
 ---------------------------------------------------------------------
 Center     Atomic      Atomic             Coordinates (Angstroms)
 Number     Number       Type             X           Y           Z
 ---------------------------------------------------------------------
      1          6           0        0.000000    0.000000    0.000000
      2          8           0        0.000000    0.000000    1.238646
      3          6           0        1.695267    0.000000   -0.612953
      4          1           0        2.096171   -0.906431   -0.157030
      5          1           0        1.766895   -0.000237   -1.703043
      6          1           0        2.096075    0.906683   -0.157442
      7          7           0       -1.288774    0.000014   -0.661582
      8          6           0       -2.658347    0.000027    0.117841
      9          6           0       -4.118741    0.000070   -0.702971
     10          8           0       -4.091138    0.000116   -1.938715
     11          1           0       -1.350450    0.000023   -1.672304
     12          1           0       -2.650801    0.885665    0.765635
     13          1           0       -2.650834   -0.885633    0.765607
     14          7           0       -5.382453    0.000060   -0.004839
     15          6           0       -6.800214    0.000107   -0.681722
     16          6           0       -8.177861    0.000057    0.277051
     17          8           0       -8.017944   -0.000018    1.503122
     18          1           0       -5.397248    0.000018    1.009481
     19          1           0       -6.850274   -0.887894   -1.324143
     20          1           0       -6.850268    0.888189   -1.324034
     21          7           0       -9.503422    0.000100   -0.285848
     22          6           0      -10.842983    0.000068    0.539160
     23          6           0      -12.348259    0.000130   -0.243067
     24          8           0      -12.355792    0.000186   -1.475767
     25          1           0       -9.623623    0.000157   -1.293057
     26          1           0      -10.816947    0.889001    1.181787
     27          1           0      -10.816971   -0.888945    1.181679
     28          7           0      -13.549589    0.000107    0.544518
     29          6           0      -15.199933    0.000135    0.245959
     30          1           0      -13.390542    0.000067    1.546421
     31          1           0      -15.316398    0.000015   -0.838866
     32          1           0      -15.575313   -0.913723    0.707605
     33          1           0      -15.575268    0.914117    0.707397
 ---------------------------------------------------------------------
                    Distance matrix (angstroms):
                    1          2          3          4          5
     1  C    0.000000
     2  O    1.238646   0.000000
     3  C    1.802676   2.510448   0.000000
     4  H    2.289150   2.676464   1.090966   0.000000
     5  H    2.454032   3.431538   1.092441   1.822023   0.000000
     6  H    2.289190   2.676689   1.090967   1.813114   1.822016
     7  N    1.448665   2.296042   2.984438   3.540349   3.228275
     8  C    2.660957   2.884963   4.414523   4.847954   4.785226
     9  C    4.178301   4.553450   5.814705   6.304358   5.969997
    10  O    4.527253   5.180061   5.936340   6.502232   5.862772
    11  H    2.149492   3.208948   3.224689   3.872584   3.117496
    12  H    2.897818   2.834588   4.644698   5.157195   5.137629
    13  H    2.897831   2.834614   4.644714   4.835881   5.137557
    14  N    5.382455   5.524224   7.103796   7.534899   7.348270
    15  C    6.834300   7.066167   8.495759   8.957833   8.627772
    16  C    8.182552   8.234201   9.913161  10.323075  10.139968
    17  O    8.157622   8.022305   9.941038  10.289461  10.296726
    18  H    5.490841   5.402111   7.275717   7.637652   7.660466
    19  H    7.033346   7.367666   8.620929   9.022271   8.671049
    20  H    7.033357   7.367658   8.620945   9.198985   8.671127
    21  N    9.507720   9.624921  11.203465  11.635676  11.359071
    22  C   10.856380  10.865522  12.591072  12.989539  12.807674
    23  C   12.350651  12.436839  14.048396  14.473106  14.190458
    24  O   12.443612  12.650440  14.077525  14.540298  14.124516
    25  H    9.710103   9.951062  11.339304  11.809573  11.397894
    26  H   10.917568  10.853567  12.671501  13.105901  12.940869
    27  H   10.917575  10.853586  12.671505  12.982360  12.940831
    28  N   13.560526  13.567357  15.288734  15.687695  15.480511
    29  C   15.201923  15.232314  16.917018  17.324533  17.078403
    30  H   13.479541  13.394079  15.239572  15.606465  15.501836
    31  H   15.339353  15.456652  17.013165  17.449473  17.105137
    32  H   15.618130  15.611126  17.345077  17.692625  17.532766
    33  H   15.618098  15.611111  17.345037  17.785988  17.532737
                    6          7          8          9         10
     6  H    0.000000
     7  N    3.540255   0.000000
     8  C    4.847920   1.575826   0.000000
     9  C    6.304243   2.830270   1.675257   0.000000
    10  O    6.502030   3.079661   2.506455   1.236052   0.000000
    11  H    3.872385   1.012602   2.217029   2.933095   2.753606
    12  H    4.835839   2.162509   1.097292   2.257417   3.189401
    13  H    5.157282   2.162509   1.097292   2.257419   3.189417
    14  N    7.534827   4.146024   2.726867   1.443729   2.325375
    15  C    8.957717   5.511476   4.218337   2.681557   2.986490
    16  C   10.323008   6.952736   5.521810   4.175751   4.648755
    17  O   10.289458   7.068781   5.535728   4.480025   5.221690
    18  H    7.637646   4.435314   2.880382   2.137071   3.224559
    19  H    9.198850   5.670771   4.521059   2.938640   2.962953
    20  H    9.022102   5.670794   4.521066   2.938658   2.962989
    21  N   11.635579   8.223236   6.856969   5.400813   5.659045
    22  C   12.989474   9.629366   8.195474   6.838006   7.192168
    23  C   14.473007  11.067400   9.696631   8.242358   8.429429
    24  O   14.540157  11.096927   9.827514   8.273223   8.277610
    25  H   11.809433   8.358735   7.106737   5.536417   5.570033
    26  H   12.982295   9.745480   8.275568   7.014875   7.467541
    27  H   13.105887   9.745480   8.275577   7.014879   7.467538
    28  N   15.687620  12.319994  10.899597   9.512997   9.778995
    29  C   17.324446  13.940730  12.542241  11.121748  11.321578
    30  H   15.606422  12.301547  10.826858   9.540758   9.931017
    31  H   17.449372  14.028744  12.694154  11.198481  11.279013
    32  H   17.785953  14.381056  12.962669  11.579196  11.820507
    33  H   17.692494  14.381014  12.962638  11.579146  11.820429
                   11         12         13         14         15
    11  H    0.000000
    12  H    2.901521   0.000000
    13  H    2.901517   1.771298   0.000000
    14  N    4.363197   2.973188   2.973177   0.000000
    15  C    5.539060   4.482932   4.482928   1.571056   0.000000
    16  C    7.100248   5.618844   5.618821   2.809585   1.678439
    17  O    7.385040   5.489494   5.489454   3.036406   2.501282
    18  H    4.854745   2.895998   2.895970   1.014428   2.197380
    19  H    5.581906   5.014804   4.690667   2.164145   1.097159
    20  H    5.581947   4.690655   5.014807   2.164146   1.097159
    21  N    8.270019   6.989153   6.989137   4.130539   2.732042
    22  C    9.746731   8.243023   8.243000   5.487561   4.223096
    23  C   11.090289   9.789910   9.789895   6.969878   5.565359
    24  O   11.007097   9.999741   9.999732   7.126787   5.612037
    25  H    8.281861   7.324110   7.324104   4.432497   2.888835
    26  H    9.927270   8.176744   8.367075   5.633119   4.516298
    27  H    9.927261   8.367118   8.176730   5.633129   4.516306
    28  N   12.398923  10.936941  10.936922   8.185591   6.859864
    29  C   13.981699  12.591066  12.591048   9.820683   8.450791
    30  H   12.462906  10.804441  10.804418   8.156954   6.956799
    31  H   13.990794  12.797505  12.797469   9.968895   8.517634
    32  H   14.451493  13.049298  12.924639  10.258507   8.931276
    33  H   14.451436  12.924629  13.049271  10.258472   8.931217
                   16         17         18         19         20
    16  C    0.000000
    17  O    1.236456   0.000000
    18  H    2.875458   2.666783   0.000000
    19  H    2.261585   3.185154   2.888853   0.000000
    20  H    2.261582   3.185151   2.888842   1.776083   0.000000
    21  N    1.440128   2.325309   4.305641   2.984256   2.984252
    22  C    2.677981   2.984974   5.466007   4.494675   4.494667
    23  C    4.202706   4.669133   7.062961   5.673196   5.673186
    24  O    4.530727   5.262196   7.389032   5.578746   5.578743
    25  H    2.134354   3.224410   4.812891   2.912227   2.912225
    26  H    2.928062   2.954324   5.494827   5.017125   4.691874
    27  H    2.928067   2.954331   5.494843   4.691890   5.017124
    28  N    5.378383   5.614091   8.165589   7.011509   7.011496
    29  C    7.022141   7.291188   9.832375   8.542284   8.542272
    30  H    5.365012   5.372773   8.011308   7.197481   7.197462
    31  H    7.225232   7.665007  10.089892   8.526379   8.526406
    32  H    7.466101   7.653857  10.223456   8.958515   9.137880
    33  H    7.466079   7.653885  10.223449   9.137829   8.958404
                   21         22         23         24         25
    21  N    0.000000
    22  C    1.573233   0.000000
    23  C    2.845158   1.696388   0.000000
    24  O    3.090619   2.519628   1.232724   0.000000
    25  H    1.014356   2.200877   2.919952   2.738272   0.000000
    26  H    2.160890   1.097201   2.272710   3.196972   2.887719
    27  H    2.160890   1.097201   2.272707   3.196959   2.887715
    28  N    4.130493   2.706611   1.436483   2.346636   4.334731
    29  C    5.721281   4.366804   2.893301   3.324677   5.784791
    30  H    4.297315   2.739458   2.070899   3.194422   4.717237
    31  H    5.839222   4.680854   3.027347   3.028338   5.710865
    32  H    6.220119   4.822689   3.486084   3.995955   6.345112
    33  H    6.220070   4.822686   3.486021   3.995810   6.345015
                   26         27         28         29         30
    26  H    0.000000
    27  H    1.777946   0.000000
    28  N    2.943395   2.943397   0.000000
    29  C    4.569072   4.569069   1.677132   0.000000
    30  H    2.747099   2.747116   1.014449   2.228250   0.000000
    31  H    5.011825   5.011756   2.243962   1.091059   3.065700
    32  H    5.110450   4.781964   2.228282   1.090488   2.512339
    33  H    4.781975   5.110515   2.228299   1.090488   2.512464
                   31         32         33
    31  H    0.000000
    32  H    1.814808   0.000000
    33  H    1.814807   1.827840   0.000000
 Stoichiometry    C9H16N4O4
 Framework group  C1[X(C9H16N4O4)]
 Deg. of freedom    93
 Full point group                 C1      NOp   1
 Largest Abelian subgroup         C1      NOp   1
 Largest concise Abelian subgroup C1      NOp   1
                         Standard orientation:                         
 ---------------------------------------------------------------------
 Center     Atomic      Atomic             Coordinates (Angstroms)
 Number     Number       Type             X           Y           Z
 ---------------------------------------------------------------------
      1          6           0        6.653293   -0.249172   -0.000004
      2          8           0        6.628688   -1.487574    0.000045
      3          6           0        8.360402    0.329985   -0.000013
      4          1           0        8.752177   -0.133848   -0.906423
      5          1           0        8.453670    1.418437   -0.000293
      6          1           0        8.752074   -0.133362    0.906691
      7          7           0        5.377915    0.437881   -0.000028
      8          6           0        3.993130   -0.314183    0.000004
      9          6           0        2.549328    0.535478    0.000001
     10          8           0        2.601474    1.770429   -0.000002
     11          1           0        5.336329    1.449629   -0.000059
     12          1           0        3.987799   -0.961964    0.885668
     13          1           0        3.987780   -0.962005   -0.885630
     14          7           0        1.271998   -0.137413    0.000008
     15          6           0       -0.132037    0.567499    0.000016
     16          6           0       -1.528458   -0.363718   -0.000010
     17          8           0       -1.392928   -1.592724   -0.000034
     18          1           0        1.237057   -1.151239    0.000005
     19          1           0       -0.169318    1.210753   -0.888012
     20          1           0       -0.169329    1.210714    0.888071
     21          7           0       -2.842576    0.225402   -0.000001
     22          6           0       -4.198261   -0.572834   -0.000012
     23          6           0       -5.687701    0.239140    0.000006
     24          8           0       -5.670746    1.471747    0.000013
     25          1           0       -2.942745    1.234800    0.000016
     26          1           0       -4.185003   -1.215816    0.888947
     27          1           0       -4.185010   -1.215778   -0.888999
     28          7           0       -6.904439   -0.524425    0.000003
     29          6           0       -8.548526   -0.193142    0.000005
     30          1           0       -6.765326   -1.529291    0.000004
     31          1           0       -8.643419    0.893783   -0.000159
     32          1           0       -8.932996   -0.647277   -0.913838
     33          1           0       -8.932961   -0.646997    0.914001
 ---------------------------------------------------------------------
 Rotational constants (GHZ):      2.3806083      0.0798113      0.0774141
 Leave Link  202 at Fri Feb 17 11:49:53 2023, MaxMem=    33554432 cpu:         0.1
 (Enter /hits/basement/its/doserbd/software/gaussian/g09d1/g09/l301.exe)
 Standard basis: 6-31+G (6D, 7F)
 Ernie: Thresh=  0.10000D-02 Tol=  0.10000D-05 Strict=F.
 There are   253 symmetry adapted cartesian basis functions of A   symmetry.
 There are   253 symmetry adapted basis functions of A   symmetry.
   253 basis functions,   506 primitive gaussians,   253 cartesian basis functions
    65 alpha electrons       65 beta electrons
       nuclear repulsion energy      1042.7750029719 Hartrees.
 IExCor= 3226 DFT=T Ex+Corr=BMK ExCW=0 ScaHFX=  0.420000
 ScaDFX=  1.000000  1.000000  1.000000  1.000000 ScalE2=  1.000000  1.000000
 IRadAn=      0 IRanWt=     -1 IRanGd=            0 ICorTp=0 IEmpDi=  4
 NAtoms=   33 NActive=   33 NUniq=   33 SFac= 1.00D+00 NAtFMM=   60 NAOKFM=F Big=F
 Integral buffers will be    131072 words long.
 Raffenetti 2 integral format.
 Two-electron integral symmetry is turned on.
 Leave Link  301 at Fri Feb 17 11:49:53 2023, MaxMem=    33554432 cpu:         0.3
 (Enter /hits/basement/its/doserbd/software/gaussian/g09d1/g09/l302.exe)
 NPDir=0 NMtPBC=     1 NCelOv=     1 NCel=       1 NClECP=     1 NCelD=      1
         NCelK=      1 NCelE2=     1 NClLst=     1 CellRange=     0.0.
 One-electron integrals computed using PRISM.
 NBasis=   253 RedAO= T EigKep=  1.26D-05  NBF=   253
 NBsUse=   253 1.00D-06 EigRej= -1.00D+00 NBFU=   253
 Precomputing XC quadrature grid using
 IXCGrd= 4 IRadAn=           0 IRanWt=          -1 IRanGd=           0 AccXCQ= 0.00D+00.
 Generated NRdTot=       0 NPtTot=           0 NUsed=           0 NTot=          32
 NSgBfM=   239   239   241   242   242 MxSgAt=    33 MxSgA2=    33.
 Leave Link  302 at Fri Feb 17 11:49:53 2023, MaxMem=    33554432 cpu:         2.8
 (Enter /hits/basement/its/doserbd/software/gaussian/g09d1/g09/l303.exe)
 DipDrv:  MaxL=1.
 Leave Link  303 at Fri Feb 17 11:49:53 2023, MaxMem=    33554432 cpu:         0.4
 (Enter /hits/basement/its/doserbd/software/gaussian/g09d1/g09/l401.exe)
 ExpMin= 4.38D-02 ExpMax= 5.48D+03 ExpMxC= 8.25D+02 IAcc=2 IRadAn=         4 AccDes= 0.00D+00
 Harris functional with IExCor= 1009 and IRadAn=       4 diagonalized for initial guess.
 HarFok:  IExCor= 1009 AccDes= 0.00D+00 IRadAn=         4 IDoV= 1 UseB2=F ITyADJ=14
 ICtDFT=  3500011 ScaDFX=  1.000000  1.000000  1.000000  1.000000
 FoFCou: FMM=F IPFlag=           0 FMFlag=      100000 FMFlg1=           0
         NFxFlg=           0 DoJE=T BraDBF=F KetDBF=T FulRan=T
         wScrn=  0.000000 ICntrl=     500 IOpCl=  0 I1Cent=   200000004 NGrid=           0
         NMat0=    1 NMatS0=      1 NMatT0=    0 NMatD0=    1 NMtDS0=    0 NMtDT0=    0
 Petite list used in FoFCou.
 Harris En= -871.347092251601    
 JPrj=0 DoOrth=F DoCkMO=F.
 Leave Link  401 at Fri Feb 17 11:49:54 2023, MaxMem=    33554432 cpu:         7.7
 (Enter /hits/basement/its/doserbd/software/gaussian/g09d1/g09/l502.exe)
 Closed shell SCF:
 Using DIIS extrapolation, IDIIS=  1040.
 Integral symmetry usage will be decided dynamically.
 IVT=      214538 IEndB=      214538 NGot=    33554432 MDV=    33420797
 LenX=    33420797 LenY=    33356347
 Requested convergence on RMS density matrix=1.00D-08 within 128 cycles.
 Requested convergence on MAX density matrix=1.00D-06.
 Requested convergence on             energy=1.00D-06.
 No special actions if energy rises.
 Fock matrices will be formed incrementally for  20 cycles.

 Cycle   1  Pass 1  IDiag  1:
 FoFJK:  IHMeth= 1 ICntrl=       0 DoSepK=F KAlg= 0 I1Cent=   0 FoldK=F
 IRaf= 690000000 NMat=   1 IRICut=       1 DoRegI=T DoRafI=F ISym2E= 0.
 FoFCou: FMM=F IPFlag=           0 FMFlag=      100000 FMFlg1=           0
         NFxFlg=           0 DoJE=F BraDBF=F KetDBF=F FulRan=T
         wScrn=  0.000000 ICntrl=       0 IOpCl=  0 I1Cent=           0 NGrid=           0
         NMat0=    1 NMatS0=      1 NMatT0=    0 NMatD0=    1 NMtDS0=    0 NMtDT0=    0
 Symmetry not used in FoFCou.
 E= -871.247987809989    
 DIIS: error= 3.40D-02 at cycle   1 NSaved=   1.
 NSaved= 1 IEnMin= 1 EnMin= -871.247987809989     IErMin= 1 ErrMin= 3.40D-02
 ErrMax= 3.40D-02  0.00D+00 EMaxC= 1.00D-01 BMatC= 4.89D-01 BMatP= 4.89D-01
 IDIUse=3 WtCom= 6.60D-01 WtEn= 3.40D-01
 Coeff-Com:  0.100D+01
 Coeff-En:   0.100D+01
 Coeff:      0.100D+01
 Gap=     0.317 Goal=   None    Shift=    0.000
 GapD=    0.317 DampG=1.000 DampE=0.500 DampFc=0.5000 IDamp=-1.
 Damping current iteration by 5.00D-01
 RMSDP=2.30D-02 MaxDP=1.42D+00              OVMax= 2.88D-01

 Cycle   2  Pass 1  IDiag  1:
 RMSU=  9.68D-03    CP:  1.16D+00
 E= -871.323320921134     Delta-E=       -0.075333111144 Rises=F Damp=T
 DIIS: error= 1.71D-02 at cycle   2 NSaved=   2.
 NSaved= 2 IEnMin= 2 EnMin= -871.323320921134     IErMin= 2 ErrMin= 1.71D-02
 ErrMax= 1.71D-02  0.00D+00 EMaxC= 1.00D-01 BMatC= 9.61D-02 BMatP= 4.89D-01
 IDIUse=3 WtCom= 8.29D-01 WtEn= 1.71D-01
 Coeff-Com:  0.272D+00 0.728D+00
 Coeff-En:   0.414D+00 0.586D+00
 Coeff:      0.297D+00 0.703D+00
 Gap=     0.306 Goal=   None    Shift=    0.000
 RMSDP=1.21D-02 MaxDP=1.00D+00 DE=-7.53D-02 OVMax= 1.55D-01

 Cycle   3  Pass 1  IDiag  1:
 RMSU=  5.58D-03    CP:  9.35D-01  3.77D-01
 E= -871.644265299498     Delta-E=       -0.320944378364 Rises=F Damp=F
 DIIS: error= 9.57D-03 at cycle   3 NSaved=   3.
 NSaved= 3 IEnMin= 3 EnMin= -871.644265299498     IErMin= 3 ErrMin= 9.57D-03
 ErrMax= 9.57D-03  0.00D+00 EMaxC= 1.00D-01 BMatC= 2.36D-02 BMatP= 9.61D-02
 IDIUse=3 WtCom= 9.04D-01 WtEn= 9.57D-02
 Coeff-Com:  0.108D+00 0.344D+00 0.548D+00
 Coeff-En:   0.000D+00 0.000D+00 0.100D+01
 Coeff:      0.973D-01 0.311D+00 0.592D+00
 Gap=     0.314 Goal=   None    Shift=    0.000
 RMSDP=1.33D-03 MaxDP=6.51D-02 DE=-3.21D-01 OVMax= 3.94D-02

 Cycle   4  Pass 1  IDiag  1:
 RMSU=  1.27D-03    CP:  9.29D-01  3.94D-01  1.05D+00
 E= -871.663963112392     Delta-E=       -0.019697812894 Rises=F Damp=F
 DIIS: error= 3.52D-03 at cycle   4 NSaved=   4.
 NSaved= 4 IEnMin= 4 EnMin= -871.663963112392     IErMin= 4 ErrMin= 3.52D-03
 ErrMax= 3.52D-03  0.00D+00 EMaxC= 1.00D-01 BMatC= 3.70D-03 BMatP= 2.36D-02
 IDIUse=3 WtCom= 9.65D-01 WtEn= 3.52D-02
 Coeff-Com:  0.190D-01 0.413D-01 0.287D+00 0.652D+00
 Coeff-En:   0.000D+00 0.000D+00 0.761D-01 0.924D+00
 Coeff:      0.184D-01 0.398D-01 0.280D+00 0.662D+00
 Gap=     0.301 Goal=   None    Shift=    0.000
 RMSDP=4.64D-04 MaxDP=1.54D-02 DE=-1.97D-02 OVMax= 1.10D-02

 Cycle   5  Pass 1  IDiag  1:
 RMSU=  3.28D-04    CP:  9.26D-01  3.69D-01  1.05D+00  8.62D-01
 E= -871.666865767567     Delta-E=       -0.002902655175 Rises=F Damp=F
 DIIS: error= 8.42D-04 at cycle   5 NSaved=   5.
 NSaved= 5 IEnMin= 5 EnMin= -871.666865767567     IErMin= 5 ErrMin= 8.42D-04
 ErrMax= 8.42D-04  0.00D+00 EMaxC= 1.00D-01 BMatC= 3.04D-04 BMatP= 3.70D-03
 IDIUse=3 WtCom= 9.92D-01 WtEn= 8.42D-03
 Coeff-Com:  0.265D-02-0.124D-01 0.926D-01 0.326D+00 0.591D+00
 Coeff-En:   0.000D+00 0.000D+00 0.000D+00 0.000D+00 0.100D+01
 Coeff:      0.263D-02-0.123D-01 0.918D-01 0.323D+00 0.595D+00
 Gap=     0.300 Goal=   None    Shift=    0.000
 RMSDP=2.33D-04 MaxDP=1.73D-02 DE=-2.90D-03 OVMax= 3.69D-03

 Cycle   6  Pass 1  IDiag  1:
 RMSU=  1.44D-04    CP:  9.22D-01  3.61D-01  1.06D+00  8.86D-01  8.29D-01
 E= -871.667141426768     Delta-E=       -0.000275659201 Rises=F Damp=F
 DIIS: error= 3.38D-04 at cycle   6 NSaved=   6.
 NSaved= 6 IEnMin= 6 EnMin= -871.667141426768     IErMin= 6 ErrMin= 3.38D-04
 ErrMax= 3.38D-04  0.00D+00 EMaxC= 1.00D-01 BMatC= 2.81D-05 BMatP= 3.04D-04
 IDIUse=3 WtCom= 9.97D-01 WtEn= 3.38D-03
 Coeff-Com:  0.158D-02-0.972D-02 0.352D-01 0.126D+00 0.304D+00 0.543D+00
 Coeff-En:   0.000D+00 0.000D+00 0.000D+00 0.000D+00 0.000D+00 0.100D+01
 Coeff:      0.158D-02-0.969D-02 0.350D-01 0.125D+00 0.303D+00 0.544D+00
 Gap=     0.300 Goal=   None    Shift=    0.000
 RMSDP=7.88D-05 MaxDP=5.24D-03 DE=-2.76D-04 OVMax= 1.03D-03

 Cycle   7  Pass 1  IDiag  1:
 RMSU=  4.61D-05    CP:  9.21D-01  3.57D-01  1.06D+00  8.80D-01  8.68D-01
                    CP:  8.93D-01
 E= -871.667162148410     Delta-E=       -0.000020721642 Rises=F Damp=F
 DIIS: error= 1.13D-04 at cycle   7 NSaved=   7.
 NSaved= 7 IEnMin= 7 EnMin= -871.667162148410     IErMin= 7 ErrMin= 1.13D-04
 ErrMax= 1.13D-04  0.00D+00 EMaxC= 1.00D-01 BMatC= 5.45D-06 BMatP= 2.81D-05
 IDIUse=3 WtCom= 9.99D-01 WtEn= 1.13D-03
 Coeff-Com:  0.986D-03-0.393D-02 0.141D-02-0.201D-02 0.514D-01 0.304D+00
 Coeff-Com:  0.648D+00
 Coeff-En:   0.000D+00 0.000D+00 0.000D+00 0.000D+00 0.000D+00 0.000D+00
 Coeff-En:   0.100D+01
 Coeff:      0.985D-03-0.393D-02 0.141D-02-0.201D-02 0.513D-01 0.304D+00
 Coeff:      0.648D+00
 Gap=     0.301 Goal=   None    Shift=    0.000
 RMSDP=3.46D-05 MaxDP=1.70D-03 DE=-2.07D-05 OVMax= 4.67D-04

 Cycle   8  Pass 1  IDiag  1:
 RMSU=  1.91D-05    CP:  9.21D-01  3.55D-01  1.06D+00  8.84D-01  8.77D-01
                    CP:  9.68D-01  7.69D-01
 E= -871.667166372668     Delta-E=       -0.000004224259 Rises=F Damp=F
 DIIS: error= 4.29D-05 at cycle   8 NSaved=   8.
 NSaved= 8 IEnMin= 8 EnMin= -871.667166372668     IErMin= 8 ErrMin= 4.29D-05
 ErrMax= 4.29D-05  0.00D+00 EMaxC= 1.00D-01 BMatC= 7.52D-07 BMatP= 5.45D-06
 IDIUse=1 WtCom= 1.00D+00 WtEn= 0.00D+00
 Coeff-Com:  0.446D-03-0.668D-03-0.515D-02-0.252D-01-0.252D-01 0.684D-01
 Coeff-Com:  0.360D+00 0.627D+00
 Coeff:      0.446D-03-0.668D-03-0.515D-02-0.252D-01-0.252D-01 0.684D-01
 Coeff:      0.360D+00 0.627D+00
 Gap=     0.301 Goal=   None    Shift=    0.000
 RMSDP=1.48D-05 MaxDP=6.65D-04 DE=-4.22D-06 OVMax= 2.20D-04

 Cycle   9  Pass 1  IDiag  1:
 RMSU=  7.19D-06    CP:  9.21D-01  3.54D-01  1.06D+00  8.81D-01  8.93D-01
                    CP:  9.40D-01  8.76D-01  1.11D+00
 E= -871.667167082770     Delta-E=       -0.000000710102 Rises=F Damp=F
 DIIS: error= 6.82D-06 at cycle   9 NSaved=   9.
 NSaved= 9 IEnMin= 9 EnMin= -871.667167082770     IErMin= 9 ErrMin= 6.82D-06
 ErrMax= 6.82D-06  0.00D+00 EMaxC= 1.00D-01 BMatC= 2.79D-08 BMatP= 7.52D-07
 IDIUse=1 WtCom= 1.00D+00 WtEn= 0.00D+00
 Coeff-Com:  0.806D-05 0.181D-03-0.101D-02-0.510D-02-0.104D-01-0.232D-01
 Coeff-Com:  0.984D-02 0.176D+00 0.854D+00
 Coeff:      0.806D-05 0.181D-03-0.101D-02-0.510D-02-0.104D-01-0.232D-01
 Coeff:      0.984D-02 0.176D+00 0.854D+00
 Gap=     0.301 Goal=   None    Shift=    0.000
 RMSDP=2.76D-06 MaxDP=6.69D-05 DE=-7.10D-07 OVMax= 5.39D-05

 Cycle  10  Pass 1  IDiag  1:
 RMSU=  1.63D-06    CP:  9.21D-01  3.54D-01  1.06D+00  8.81D-01  8.95D-01
                    CP:  9.49D-01  8.87D-01  1.14D+00  1.00D+00
 E= -871.667167115999     Delta-E=       -0.000000033228 Rises=F Damp=F
 DIIS: error= 3.30D-06 at cycle  10 NSaved=  10.
 NSaved=10 IEnMin=10 EnMin= -871.667167115999     IErMin=10 ErrMin= 3.30D-06
 ErrMax= 3.30D-06  0.00D+00 EMaxC= 1.00D-01 BMatC= 3.56D-09 BMatP= 2.79D-08
 IDIUse=1 WtCom= 1.00D+00 WtEn= 0.00D+00
 Coeff-Com: -0.231D-04 0.128D-03-0.152D-03-0.948D-03-0.345D-02-0.153D-01
 Coeff-Com: -0.164D-01 0.501D-01 0.408D+00 0.578D+00
 Coeff:     -0.231D-04 0.128D-03-0.152D-03-0.948D-03-0.345D-02-0.153D-01
 Coeff:     -0.164D-01 0.501D-01 0.408D+00 0.578D+00
 Gap=     0.301 Goal=   None    Shift=    0.000
 RMSDP=6.74D-07 MaxDP=3.64D-05 DE=-3.32D-08 OVMax= 1.22D-05

 Cycle  11  Pass 1  IDiag  1:
 RMSU=  5.45D-07    CP:  9.21D-01  3.54D-01  1.06D+00  8.81D-01  8.95D-01
                    CP:  9.48D-01  8.92D-01  1.14D+00  1.02D+00  9.38D-01
 E= -871.667167119357     Delta-E=       -0.000000003358 Rises=F Damp=F
 DIIS: error= 1.22D-06 at cycle  11 NSaved=  11.
 NSaved=11 IEnMin=11 EnMin= -871.667167119357     IErMin=11 ErrMin= 1.22D-06
 ErrMax= 1.22D-06  0.00D+00 EMaxC= 1.00D-01 BMatC= 3.33D-10 BMatP= 3.56D-09
 IDIUse=1 WtCom= 1.00D+00 WtEn= 0.00D+00
 Coeff-Com: -0.119D-04 0.417D-04 0.405D-04 0.818D-04-0.472D-03-0.437D-02
 Coeff-Com: -0.810D-02 0.406D-02 0.915D-01 0.259D+00 0.658D+00
 Coeff:     -0.119D-04 0.417D-04 0.405D-04 0.818D-04-0.472D-03-0.437D-02
 Coeff:     -0.810D-02 0.406D-02 0.915D-01 0.259D+00 0.658D+00
 Gap=     0.301 Goal=   None    Shift=    0.000
 RMSDP=3.02D-07 MaxDP=2.26D-05 DE=-3.36D-09 OVMax= 5.85D-06

 Cycle  12  Pass 1  IDiag  1:
 RMSU=  1.84D-07    CP:  9.21D-01  3.54D-01  1.06D+00  8.81D-01  8.95D-01
                    CP:  9.48D-01  8.90D-01  1.15D+00  1.02D+00  9.83D-01
                    CP:  8.82D-01
 E= -871.667167119580     Delta-E=       -0.000000000224 Rises=F Damp=F
 DIIS: error= 6.32D-07 at cycle  12 NSaved=  12.
 NSaved=12 IEnMin=12 EnMin= -871.667167119580     IErMin=12 ErrMin= 6.32D-07
 ErrMax= 6.32D-07  0.00D+00 EMaxC= 1.00D-01 BMatC= 1.05D-10 BMatP= 3.33D-10
 IDIUse=1 WtCom= 1.00D+00 WtEn= 0.00D+00
 Coeff-Com: -0.368D-05 0.497D-05 0.507D-04 0.196D-03 0.285D-03-0.914D-04
 Coeff-Com: -0.221D-02-0.617D-02-0.128D-01 0.635D-01 0.407D+00 0.550D+00
 Coeff:     -0.368D-05 0.497D-05 0.507D-04 0.196D-03 0.285D-03-0.914D-04
 Coeff:     -0.221D-02-0.617D-02-0.128D-01 0.635D-01 0.407D+00 0.550D+00
 Gap=     0.301 Goal=   None    Shift=    0.000
 RMSDP=1.41D-07 MaxDP=7.32D-06 DE=-2.24D-10 OVMax= 2.32D-06

 Cycle  13  Pass 1  IDiag  1:
 RMSU=  6.98D-08    CP:  9.21D-01  3.54D-01  1.06D+00  8.81D-01  8.95D-01
                    CP:  9.47D-01  8.91D-01  1.15D+00  1.02D+00  9.83D-01
                    CP:  9.50D-01  6.83D-01
 E= -871.667167119646     Delta-E=       -0.000000000065 Rises=F Damp=F
 DIIS: error= 2.12D-07 at cycle  13 NSaved=  13.
 NSaved=13 IEnMin=13 EnMin= -871.667167119646     IErMin=13 ErrMin= 2.12D-07
 ErrMax= 2.12D-07  0.00D+00 EMaxC= 1.00D-01 BMatC= 8.25D-12 BMatP= 1.05D-10
 IDIUse=1 WtCom= 1.00D+00 WtEn= 0.00D+00
 Coeff-Com: -0.111D-05 0.622D-07 0.246D-04 0.940D-04 0.184D-03 0.265D-03
 Coeff-Com: -0.653D-03-0.363D-02-0.132D-01 0.142D-01 0.164D+00 0.303D+00
 Coeff-Com:  0.536D+00
 Coeff:     -0.111D-05 0.622D-07 0.246D-04 0.940D-04 0.184D-03 0.265D-03
 Coeff:     -0.653D-03-0.363D-02-0.132D-01 0.142D-01 0.164D+00 0.303D+00
 Coeff:      0.536D+00
 Gap=     0.301 Goal=   None    Shift=    0.000
 RMSDP=3.56D-08 MaxDP=1.93D-06 DE=-6.55D-11 OVMax= 6.32D-07

 Cycle  14  Pass 1  IDiag  1:
 RMSU=  2.09D-08    CP:  9.21D-01  3.54D-01  1.06D+00  8.81D-01  8.95D-01
                    CP:  9.47D-01  8.91D-01  1.15D+00  1.03D+00  9.90D-01
                    CP:  9.35D-01  7.25D-01  8.92D-01
 E= -871.667167119685     Delta-E=       -0.000000000039 Rises=F Damp=F
 DIIS: error= 4.07D-08 at cycle  14 NSaved=  14.
 NSaved=14 IEnMin=14 EnMin= -871.667167119685     IErMin=14 ErrMin= 4.07D-08
 ErrMax= 4.07D-08  0.00D+00 EMaxC= 1.00D-01 BMatC= 5.26D-13 BMatP= 8.25D-12
 IDIUse=1 WtCom= 1.00D+00 WtEn= 0.00D+00
 Coeff-Com:  0.169D-06-0.754D-06 0.294D-05 0.685D-05 0.344D-04 0.138D-03
 Coeff-Com:  0.638D-04-0.574D-03-0.345D-02-0.433D-02-0.607D-04 0.352D-01
 Coeff-Com:  0.213D+00 0.760D+00
 Coeff:      0.169D-06-0.754D-06 0.294D-05 0.685D-05 0.344D-04 0.138D-03
 Coeff:      0.638D-04-0.574D-03-0.345D-02-0.433D-02-0.607D-04 0.352D-01
 Coeff:      0.213D+00 0.760D+00
 Gap=     0.301 Goal=   None    Shift=    0.000
 RMSDP=1.07D-08 MaxDP=5.73D-07 DE=-3.93D-11 OVMax= 1.14D-07

 Cycle  15  Pass 1  IDiag  1:
 RMSU=  5.85D-09    CP:  9.21D-01  3.54D-01  1.06D+00  8.81D-01  8.95D-01
                    CP:  9.47D-01  8.91D-01  1.15D+00  1.03D+00  9.91D-01
                    CP:  9.41D-01  7.41D-01  9.17D-01  9.61D-01
 E= -871.667167119672     Delta-E=        0.000000000013 Rises=F Damp=F
 DIIS: error= 7.26D-09 at cycle  15 NSaved=  15.
 NSaved=15 IEnMin=14 EnMin= -871.667167119685     IErMin=15 ErrMin= 7.26D-09
 ErrMax= 7.26D-09  0.00D+00 EMaxC= 1.00D-01 BMatC= 3.82D-14 BMatP= 5.26D-13
 IDIUse=1 WtCom= 1.00D+00 WtEn= 0.00D+00
 Coeff-Com:  0.132D-06-0.299D-06-0.220D-06-0.310D-05 0.352D-05 0.424D-04
 Coeff-Com:  0.652D-04-0.328D-04-0.635D-03-0.263D-02-0.969D-02-0.392D-02
 Coeff-Com:  0.607D-01 0.317D+00 0.640D+00
 Coeff:      0.132D-06-0.299D-06-0.220D-06-0.310D-05 0.352D-05 0.424D-04
 Coeff:      0.652D-04-0.328D-04-0.635D-03-0.263D-02-0.969D-02-0.392D-02
 Coeff:      0.607D-01 0.317D+00 0.640D+00
 Gap=     0.301 Goal=   None    Shift=    0.000
 RMSDP=2.45D-09 MaxDP=1.15D-07 DE= 1.32D-11 OVMax= 5.28D-08

 SCF Done:  E(RBMK) =  -871.667167120     A.U. after   15 cycles
            NFock= 15  Conv=0.24D-08     -V/T= 2.0085
 KE= 8.643367853323D+02 PE=-4.120218529411D+03 EE= 1.341439573987D+03
 Leave Link  502 at Fri Feb 17 11:50:30 2023, MaxMem=    33554432 cpu:       281.9
 (Enter /hits/basement/its/doserbd/software/gaussian/g09d1/g09/l601.exe)
 Copying SCF densities to generalized density rwf, IOpCl= 0 IROHF=0.

 **********************************************************************

            Population analysis using the SCF density.

 **********************************************************************

 Orbital symmetries:
       Occupied  (A) (A) (A) (A) (A) (A) (A) (A) (A) (A) (A) (A)
                 (A) (A) (A) (A) (A) (A) (A) (A) (A) (A) (A) (A)
                 (A) (A) (A) (A) (A) (A) (A) (A) (A) (A) (A) (A)
                 (A) (A) (A) (A) (A) (A) (A) (A) (A) (A) (A) (A)
                 (A) (A) (A) (A) (A) (A) (A) (A) (A) (A) (A) (A)
                 (A) (A) (A) (A) (A)
       Virtual   (A) (A) (A) (A) (A) (A) (A) (A) (A) (A) (A) (A)
                 (A) (A) (A) (A) (A) (A) (A) (A) (A) (A) (A) (A)
                 (A) (A) (A) (A) (A) (A) (A) (A) (A) (A) (A) (A)
                 (A) (A) (A) (A) (A) (A) (A) (A) (A) (A) (A) (A)
                 (A) (A) (A) (A) (A) (A) (A) (A) (A) (A) (A) (A)
                 (A) (A) (A) (A) (A) (A) (A) (A) (A) (A) (A) (A)
                 (A) (A) (A) (A) (A) (A) (A) (A) (A) (A) (A) (A)
                 (A) (A) (A) (A) (A) (A) (A) (A) (A) (A) (A) (A)
                 (A) (A) (A) (A) (A) (A) (A) (A) (A) (A) (A) (A)
                 (A) (A) (A) (A) (A) (A) (A) (A) (A) (A) (A) (A)
                 (A) (A) (A) (A) (A) (A) (A) (A) (A) (A) (A) (A)
                 (A) (A) (A) (A) (A) (A) (A) (A) (A) (A) (A) (A)
                 (A) (A) (A) (A) (A) (A) (A) (A) (A) (A) (A) (A)
                 (A) (A) (A) (A) (A) (A) (A) (A) (A) (A) (A) (A)
                 (A) (A) (A) (A) (A) (A) (A) (A) (A) (A) (A) (A)
                 (A) (A) (A) (A) (A) (A) (A) (A)
 The electronic state is 1-A.
 Alpha  occ. eigenvalues --  -19.55357 -19.55132 -19.54629 -19.52558 -14.73840
 Alpha  occ. eigenvalues --  -14.73532 -14.73165 -14.71831 -10.64591 -10.64476
 Alpha  occ. eigenvalues --  -10.63830 -10.61915 -10.56697 -10.56412 -10.55398
 Alpha  occ. eigenvalues --  -10.55265 -10.50388  -1.16515  -1.16158  -1.15732
 Alpha  occ. eigenvalues --   -1.13839  -0.99642  -0.98952  -0.98679  -0.97083
 Alpha  occ. eigenvalues --   -0.82583  -0.80923  -0.79070  -0.77827  -0.76414
 Alpha  occ. eigenvalues --   -0.65830  -0.64616  -0.64362  -0.63034  -0.59883
 Alpha  occ. eigenvalues --   -0.56899  -0.54016  -0.53894  -0.52808  -0.52761
 Alpha  occ. eigenvalues --   -0.51614  -0.51594  -0.51363  -0.50932  -0.50034
 Alpha  occ. eigenvalues --   -0.49169  -0.48944  -0.48279  -0.46499  -0.46130
 Alpha  occ. eigenvalues --   -0.45908  -0.45107  -0.44619  -0.44444  -0.43171
 Alpha  occ. eigenvalues --   -0.42542  -0.41334  -0.32735  -0.32221  -0.32063
 Alpha  occ. eigenvalues --   -0.31776  -0.31402  -0.30867  -0.29411  -0.29221
 Alpha virt. eigenvalues --    0.00870   0.01835   0.02343   0.02568   0.02616
 Alpha virt. eigenvalues --    0.02952   0.04030   0.04084   0.04447   0.06082
 Alpha virt. eigenvalues --    0.06258   0.06499   0.07125   0.07513   0.07528
 Alpha virt. eigenvalues --    0.07838   0.08897   0.09207   0.09417   0.09759
 Alpha virt. eigenvalues --    0.10127   0.10616   0.10983   0.11336   0.11632
 Alpha virt. eigenvalues --    0.12009   0.12785   0.12872   0.13121   0.13997
 Alpha virt. eigenvalues --    0.14611   0.15201   0.15671   0.15786   0.16099
 Alpha virt. eigenvalues --    0.16523   0.16549   0.17333   0.17667   0.17938
 Alpha virt. eigenvalues --    0.18993   0.20209   0.20544   0.20788   0.21165
 Alpha virt. eigenvalues --    0.21374   0.21811   0.22175   0.22387   0.23164
 Alpha virt. eigenvalues --    0.23431   0.24126   0.24647   0.24865   0.25025
 Alpha virt. eigenvalues --    0.25756   0.26653   0.26852   0.27125   0.27468
 Alpha virt. eigenvalues --    0.27624   0.27855   0.28300   0.28376   0.28795
 Alpha virt. eigenvalues --    0.28990   0.29417   0.30449   0.30760   0.31455
 Alpha virt. eigenvalues --    0.31812   0.32320   0.32466   0.33302   0.33694
 Alpha virt. eigenvalues --    0.33850   0.34356   0.35207   0.35328   0.35439
 Alpha virt. eigenvalues --    0.36009   0.36385   0.37188   0.37408   0.37703
 Alpha virt. eigenvalues --    0.38696   0.39622   0.40553   0.41106   0.41268
 Alpha virt. eigenvalues --    0.41993   0.43673   0.44445   0.45576   0.45784
 Alpha virt. eigenvalues --    0.46199   0.47688   0.48841   0.49631   0.51714
 Alpha virt. eigenvalues --    0.52507   0.53745   0.55283   0.57607   0.65460
 Alpha virt. eigenvalues --    0.68749   0.68983   0.69474   0.69851   0.70579
 Alpha virt. eigenvalues --    0.71406   0.72301   0.74232   0.76708   0.77888
 Alpha virt. eigenvalues --    0.78765   0.78965   0.79749   0.82364   0.82414
 Alpha virt. eigenvalues --    0.84481   0.85213   0.85467   0.86018   0.86898
 Alpha virt. eigenvalues --    0.90120   0.93065   0.95089   0.98349   0.98486
 Alpha virt. eigenvalues --    1.00270   1.00541   1.01520   1.02003   1.02109
 Alpha virt. eigenvalues --    1.05362   1.10812   1.10934   1.11944   1.12099
 Alpha virt. eigenvalues --    1.12278   1.13111   1.13479   1.13989   1.15179
 Alpha virt. eigenvalues --    1.15734   1.16477   1.19721   1.20818   1.21979
 Alpha virt. eigenvalues --    1.22984   1.23907   1.26267   1.27712   1.28671
 Alpha virt. eigenvalues --    1.29765   1.32807   1.33726   1.34539   1.34692
 Alpha virt. eigenvalues --    1.35464   1.36721   1.37313   1.39472   1.40828
 Alpha virt. eigenvalues --    1.42410   1.44296   1.44700   1.45478   1.48729
 Alpha virt. eigenvalues --    1.49859   1.51095   1.52895   1.53714   1.53842
 Alpha virt. eigenvalues --    1.55817   1.57042   1.58712   1.60605   1.61437
 Alpha virt. eigenvalues --    1.65385   1.76315   1.81712   1.87147   2.01459
 Alpha virt. eigenvalues --    2.08163   2.08910   2.09882
          Condensed to atoms (all electrons):
               1          2          3          4          5          6
     1  C    5.634433   0.413462  -0.146890  -0.046177  -0.018760  -0.046163
     2  O    0.413462   8.469052  -0.138949  -0.002890   0.006441  -0.002888
     3  C   -0.146890  -0.138949   6.124280   0.402152   0.337139   0.402135
     4  H   -0.046177  -0.002890   0.402152   0.467450  -0.025686  -0.022198
     5  H   -0.018760   0.006441   0.337139  -0.025686   0.526176  -0.025686
     6  H   -0.046163  -0.002888   0.402135  -0.022198  -0.025686   0.467461
     7  N   -0.078176  -0.208142  -0.189948   0.000422   0.004161   0.000419
     8  C   -0.799018  -0.087112  -0.217743  -0.003047   0.002066  -0.003046
     9  C    0.405116   0.065320   0.118208  -0.000313  -0.001679  -0.000313
    10  O    0.009640  -0.000257  -0.000915   0.000001   0.000000   0.000001
    11  H    0.025411   0.006715   0.012630   0.000006  -0.000275   0.000006
    12  H    0.006714   0.001266  -0.000506  -0.000002   0.000000   0.000006
    13  H    0.006716   0.001266  -0.000507   0.000006   0.000000  -0.000002
    14  N    0.019881  -0.001313   0.001364   0.000000   0.000003   0.000000
    15  C    0.017098   0.000323   0.002589   0.000000  -0.000009   0.000000
    16  C   -0.010232   0.000404  -0.000422   0.000000   0.000000   0.000000
    17  O    0.000116  -0.000003   0.000002   0.000000   0.000000   0.000000
    18  H   -0.000349   0.000045  -0.000010   0.000000   0.000000   0.000000
    19  H    0.000020   0.000000   0.000000   0.000000   0.000000   0.000000
    20  H    0.000020   0.000000   0.000000   0.000000   0.000000   0.000000
    21  N   -0.000045   0.000000  -0.000001   0.000000   0.000000   0.000000
    22  C   -0.000048   0.000001   0.000000   0.000000   0.000000   0.000000
    23  C    0.000005   0.000000   0.000000   0.000000   0.000000   0.000000
    24  O    0.000000   0.000000   0.000000   0.000000   0.000000   0.000000
    25  H    0.000000   0.000000   0.000000   0.000000   0.000000   0.000000
    26  H    0.000000   0.000000   0.000000   0.000000   0.000000   0.000000
    27  H    0.000000   0.000000   0.000000   0.000000   0.000000   0.000000
    28  N    0.000000   0.000000   0.000000   0.000000   0.000000   0.000000
    29  C    0.000000   0.000000   0.000000   0.000000   0.000000   0.000000
    30  H    0.000000   0.000000   0.000000   0.000000   0.000000   0.000000
    31  H    0.000000   0.000000   0.000000   0.000000   0.000000   0.000000
    32  H    0.000000   0.000000   0.000000   0.000000   0.000000   0.000000
    33  H    0.000000   0.000000   0.000000   0.000000   0.000000   0.000000
               7          8          9         10         11         12
     1  C   -0.078176  -0.799018   0.405116   0.009640   0.025411   0.006714
     2  O   -0.208142  -0.087112   0.065320  -0.000257   0.006715   0.001266
     3  C   -0.189948  -0.217743   0.118208  -0.000915   0.012630  -0.000506
     4  H    0.000422  -0.003047  -0.000313   0.000001   0.000006  -0.000002
     5  H    0.004161   0.002066  -0.001679   0.000000  -0.000275   0.000000
     6  H    0.000419  -0.003046  -0.000313   0.000001   0.000006   0.000006
     7  N    7.617493   0.400190  -0.158785   0.026267   0.253924  -0.048024
     8  C    0.400190  11.269023  -3.933677   0.151386  -0.060729   0.365248
     9  C   -0.158785  -3.933677   8.635844   0.140840   0.022014  -0.035460
    10  O    0.026267   0.151386   0.140840   8.451379   0.003037   0.001362
    11  H    0.253924  -0.060729   0.022014   0.003037   0.321441   0.001675
    12  H   -0.048024   0.365248  -0.035460   0.001362   0.001675   0.490483
    13  H   -0.048024   0.365252  -0.035468   0.001362   0.001675  -0.035338
    14  N    0.007918  -0.560239   0.195597  -0.198772   0.002090   0.012424
    15  C   -0.003333  -0.325623  -0.707370  -0.074424   0.001270   0.001152
    16  C   -0.005727   0.041147   0.378259   0.036692  -0.000086  -0.001493
    17  O    0.000123  -0.009027   0.023408  -0.000260   0.000000   0.000032
    18  H   -0.000349   0.045001  -0.026575   0.006197  -0.000003  -0.000264
    19  H    0.000031  -0.001499   0.004782   0.000433   0.000000  -0.000003
    20  H    0.000031  -0.001497   0.004781   0.000433   0.000000   0.000007
    21  N   -0.000021   0.000251   0.027855  -0.000339   0.000000   0.000000
    22  C   -0.000065   0.004605   0.005289   0.000373   0.000000   0.000001
    23  C   -0.000002  -0.000592  -0.010776   0.000119   0.000000   0.000000
    24  O    0.000000  -0.000002   0.000104  -0.000001   0.000000   0.000000
    25  H    0.000000   0.000203  -0.000268   0.000017   0.000000   0.000000
    26  H    0.000000   0.000001   0.000027   0.000000   0.000000   0.000000
    27  H    0.000000   0.000001   0.000027   0.000000   0.000000   0.000000
    28  N    0.000000  -0.000001  -0.000058   0.000000   0.000000   0.000000
    29  C    0.000000   0.000000  -0.000018   0.000000   0.000000   0.000000
    30  H    0.000000   0.000000   0.000001   0.000000   0.000000   0.000000
    31  H    0.000000   0.000000   0.000000   0.000000   0.000000   0.000000
    32  H    0.000000   0.000000   0.000000   0.000000   0.000000   0.000000
    33  H    0.000000   0.000000   0.000000   0.000000   0.000000   0.000000
              13         14         15         16         17         18
     1  C    0.006716   0.019881   0.017098  -0.010232   0.000116  -0.000349
     2  O    0.001266  -0.001313   0.000323   0.000404  -0.000003   0.000045
     3  C   -0.000507   0.001364   0.002589  -0.000422   0.000002  -0.000010
     4  H    0.000006   0.000000   0.000000   0.000000   0.000000   0.000000
     5  H    0.000000   0.000003  -0.000009   0.000000   0.000000   0.000000
     6  H   -0.000002   0.000000   0.000000   0.000000   0.000000   0.000000
     7  N   -0.048024   0.007918  -0.003333  -0.005727   0.000123  -0.000349
     8  C    0.365252  -0.560239  -0.325623   0.041147  -0.009027   0.045001
     9  C   -0.035468   0.195597  -0.707370   0.378259   0.023408  -0.026575
    10  O    0.001362  -0.198772  -0.074424   0.036692  -0.000260   0.006197
    11  H    0.001675   0.002090   0.001270  -0.000086   0.000000  -0.000003
    12  H   -0.035338   0.012424   0.001152  -0.001493   0.000032  -0.000264
    13  H    0.490485   0.012424   0.001153  -0.001493   0.000032  -0.000264
    14  N    0.012424   7.598899   0.371829  -0.124136   0.029262   0.267195
    15  C    0.001153   0.371829  10.720850  -3.442019   0.131008  -0.027425
    16  C   -0.001493  -0.124136  -3.442019   8.199439   0.149377  -0.007280
    17  O    0.000032   0.029262   0.131008   0.149377   8.456541   0.006287
    18  H   -0.000264   0.267195  -0.027425  -0.007280   0.006287   0.312799
    19  H    0.000007  -0.044630   0.356856  -0.025108   0.001507   0.001731
    20  H   -0.000003  -0.044631   0.356865  -0.025118   0.001508   0.001731
    21  N    0.000000   0.006749  -0.568529   0.255275  -0.212832   0.002346
    22  C    0.000001  -0.009144  -0.114276  -0.726309  -0.034332   0.001127
    23  C    0.000000  -0.001945  -0.063705   0.438762   0.005912  -0.000171
    24  O    0.000000   0.000087  -0.009117   0.016323  -0.000236   0.000000
    25  H    0.000000   0.000021   0.037764  -0.026529   0.005913  -0.000004
    26  H    0.000000   0.000021  -0.004705  -0.001807   0.000351   0.000000
    27  H    0.000000   0.000021  -0.004703  -0.001806   0.000351   0.000000
    28  N    0.000000  -0.000036  -0.004189   0.012203  -0.000270   0.000000
    29  C    0.000000  -0.000006  -0.000230   0.002880  -0.000026   0.000000
    30  H    0.000000   0.000000   0.000496   0.002300   0.000024   0.000000
    31  H    0.000000   0.000000   0.000001  -0.000034   0.000000   0.000000
    32  H    0.000000   0.000000   0.000002   0.000036   0.000000   0.000000
    33  H    0.000000   0.000000   0.000002   0.000036   0.000000   0.000000
              19         20         21         22         23         24
     1  C    0.000020   0.000020  -0.000045  -0.000048   0.000005   0.000000
     2  O    0.000000   0.000000   0.000000   0.000001   0.000000   0.000000
     3  C    0.000000   0.000000  -0.000001   0.000000   0.000000   0.000000
     4  H    0.000000   0.000000   0.000000   0.000000   0.000000   0.000000
     5  H    0.000000   0.000000   0.000000   0.000000   0.000000   0.000000
     6  H    0.000000   0.000000   0.000000   0.000000   0.000000   0.000000
     7  N    0.000031   0.000031  -0.000021  -0.000065  -0.000002   0.000000
     8  C   -0.001499  -0.001497   0.000251   0.004605  -0.000592  -0.000002
     9  C    0.004782   0.004781   0.027855   0.005289  -0.010776   0.000104
    10  O    0.000433   0.000433  -0.000339   0.000373   0.000119  -0.000001
    11  H    0.000000   0.000000   0.000000   0.000000   0.000000   0.000000
    12  H   -0.000003   0.000007   0.000000   0.000001   0.000000   0.000000
    13  H    0.000007  -0.000003   0.000000   0.000001   0.000000   0.000000
    14  N   -0.044630  -0.044631   0.006749  -0.009144  -0.001945   0.000087
    15  C    0.356856   0.356865  -0.568529  -0.114276  -0.063705  -0.009117
    16  C   -0.025108  -0.025118   0.255275  -0.726309   0.438762   0.016323
    17  O    0.001507   0.001508  -0.212832  -0.034332   0.005912  -0.000236
    18  H    0.001731   0.001731   0.002346   0.001127  -0.000171   0.000000
    19  H    0.486905  -0.034894   0.011515   0.000915  -0.001123   0.000023
    20  H   -0.034894   0.486908   0.011515   0.000914  -0.001123   0.000023
    21  N    0.011515   0.011515   7.604606   0.247223  -0.058179   0.023908
    22  C    0.000915   0.000914   0.247223  10.036696  -2.780594   0.023990
    23  C   -0.001123  -0.001123  -0.058179  -2.780594   7.181398   0.239083
    24  O    0.000023   0.000023   0.023908   0.023990   0.239083   8.462092
    25  H   -0.000272  -0.000272   0.271981  -0.023390  -0.004100   0.005903
    26  H   -0.000003   0.000006  -0.044751   0.335032   0.002644   0.001161
    27  H    0.000006  -0.000003  -0.044749   0.335027   0.002644   0.001160
    28  N    0.000000   0.000000   0.007681  -0.653821   0.491966  -0.207995
    29  C    0.000000   0.000000   0.001812  -0.139580   0.001381  -0.022695
    30  H    0.000000   0.000000   0.000490   0.061365  -0.055148   0.009709
    31  H    0.000000   0.000000  -0.000019  -0.007881  -0.008965   0.004461
    32  H    0.000000   0.000000  -0.000015   0.003981  -0.002663  -0.000027
    33  H    0.000000   0.000000  -0.000015   0.003980  -0.002663  -0.000027
              25         26         27         28         29         30
     1  C    0.000000   0.000000   0.000000   0.000000   0.000000   0.000000
     2  O    0.000000   0.000000   0.000000   0.000000   0.000000   0.000000
     3  C    0.000000   0.000000   0.000000   0.000000   0.000000   0.000000
     4  H    0.000000   0.000000   0.000000   0.000000   0.000000   0.000000
     5  H    0.000000   0.000000   0.000000   0.000000   0.000000   0.000000
     6  H    0.000000   0.000000   0.000000   0.000000   0.000000   0.000000
     7  N    0.000000   0.000000   0.000000   0.000000   0.000000   0.000000
     8  C    0.000203   0.000001   0.000001  -0.000001   0.000000   0.000000
     9  C   -0.000268   0.000027   0.000027  -0.000058  -0.000018   0.000001
    10  O    0.000017   0.000000   0.000000   0.000000   0.000000   0.000000
    11  H    0.000000   0.000000   0.000000   0.000000   0.000000   0.000000
    12  H    0.000000   0.000000   0.000000   0.000000   0.000000   0.000000
    13  H    0.000000   0.000000   0.000000   0.000000   0.000000   0.000000
    14  N    0.000021   0.000021   0.000021  -0.000036  -0.000006   0.000000
    15  C    0.037764  -0.004705  -0.004703  -0.004189  -0.000230   0.000496
    16  C   -0.026529  -0.001807  -0.001806   0.012203   0.002880   0.002300
    17  O    0.005913   0.000351   0.000351  -0.000270  -0.000026   0.000024
    18  H   -0.000004   0.000000   0.000000   0.000000   0.000000   0.000000
    19  H   -0.000272  -0.000003   0.000006   0.000000   0.000000   0.000000
    20  H   -0.000272   0.000006  -0.000003   0.000000   0.000000   0.000000
    21  N    0.271981  -0.044751  -0.044749   0.007681   0.001812   0.000490
    22  C   -0.023390   0.335032   0.335027  -0.653821  -0.139580   0.061365
    23  C   -0.004100   0.002644   0.002644   0.491966   0.001381  -0.055148
    24  O    0.005903   0.001161   0.001160  -0.207995  -0.022695   0.009709
    25  H    0.311844   0.001765   0.001765   0.002090   0.000352  -0.000004
    26  H    0.001765   0.492757  -0.036090   0.013797   0.001819  -0.000583
    27  H    0.001765  -0.036090   0.492756   0.013797   0.001819  -0.000583
    28  N    0.002090   0.013797   0.013797   7.545792   0.181461   0.259229
    29  C    0.000352   0.001819   0.001819   0.181461   5.230653  -0.027270
    30  H   -0.000004  -0.000583  -0.000583   0.259229  -0.027270   0.399854
    31  H    0.000000  -0.000001  -0.000001  -0.034232   0.402427   0.002115
    32  H    0.000000  -0.000001   0.000005  -0.037477   0.382083  -0.000801
    33  H    0.000000   0.000005  -0.000001  -0.037481   0.382087  -0.000800
              31         32         33
     1  C    0.000000   0.000000   0.000000
     2  O    0.000000   0.000000   0.000000
     3  C    0.000000   0.000000   0.000000
     4  H    0.000000   0.000000   0.000000
     5  H    0.000000   0.000000   0.000000
     6  H    0.000000   0.000000   0.000000
     7  N    0.000000   0.000000   0.000000
     8  C    0.000000   0.000000   0.000000
     9  C    0.000000   0.000000   0.000000
    10  O    0.000000   0.000000   0.000000
    11  H    0.000000   0.000000   0.000000
    12  H    0.000000   0.000000   0.000000
    13  H    0.000000   0.000000   0.000000
    14  N    0.000000   0.000000   0.000000
    15  C    0.000001   0.000002   0.000002
    16  C   -0.000034   0.000036   0.000036
    17  O    0.000000   0.000000   0.000000
    18  H    0.000000   0.000000   0.000000
    19  H    0.000000   0.000000   0.000000
    20  H    0.000000   0.000000   0.000000
    21  N   -0.000019  -0.000015  -0.000015
    22  C   -0.007881   0.003981   0.003980
    23  C   -0.008965  -0.002663  -0.002663
    24  O    0.004461  -0.000027  -0.000027
    25  H    0.000000   0.000000   0.000000
    26  H   -0.000001  -0.000001   0.000005
    27  H   -0.000001   0.000005  -0.000001
    28  N   -0.034232  -0.037477  -0.037481
    29  C    0.402427   0.382083   0.382087
    30  H    0.002115  -0.000801  -0.000800
    31  H    0.443462  -0.022423  -0.022424
    32  H   -0.022423   0.493799  -0.032427
    33  H   -0.022424  -0.032427   0.493797
 Mulliken charges:
               1
     1  C    0.607224
     2  O   -0.522742
     3  C   -0.704609
     4  H    0.230275
     5  H    0.196109
     6  H    0.230267
     7  N   -0.570386
     8  C   -0.641523
     9  C    0.883287
    10  O   -0.554573
    11  H    0.409198
    12  H    0.240721
    13  H    0.240719
    14  N   -0.540933
    15  C   -0.649600
    16  C    0.866467
    17  O   -0.554768
    18  H    0.418235
    19  H    0.242801
    20  H    0.242800
    21  N   -0.543711
    22  C   -0.571079
    23  C    0.627836
    24  O   -0.547929
    25  H    0.415222
    26  H    0.238556
    27  H    0.238558
    28  N   -0.552454
    29  C   -0.398946
    30  H    0.349606
    31  H    0.243515
    32  H    0.215927
    33  H    0.215933
 Sum of Mulliken charges =   0.00000
 Mulliken charges with hydrogens summed into heavy atoms:
               1
     1  C    0.607224
     2  O   -0.522742
     3  C   -0.047959
     7  N   -0.161188
     8  C   -0.160084
     9  C    0.883287
    10  O   -0.554573
    14  N   -0.122698
    15  C   -0.163999
    16  C    0.866467
    17  O   -0.554768
    21  N   -0.128489
    22  C   -0.093965
    23  C    0.627836
    24  O   -0.547929
    28  N   -0.202849
    29  C    0.276429
 Electronic spatial extent (au):  <R**2>=          13001.4659
 Charge=              0.0000 electrons
 Dipole moment (field-independent basis, Debye):
    X=             -6.5465    Y=             -0.6028    Z=              0.0000  Tot=              6.5742
 Quadrupole moment (field-independent basis, Debye-Ang):
   XX=            -50.0243   YY=           -118.2707   ZZ=           -102.6946
   XY=             34.0529   XZ=             -0.0005   YZ=              0.0000
 Traceless Quadrupole moment (field-independent basis, Debye-Ang):
   XX=             40.3056   YY=            -27.9409   ZZ=            -12.3647
   XY=             34.0529   XZ=             -0.0005   YZ=              0.0000
 Octapole moment (field-independent basis, Debye-Ang**2):
  XXX=           -444.9767  YYY=             -1.0939  ZZZ=              0.0013  XYY=            -33.9318
  XXY=             -8.2144  XXZ=             -0.0051  XZZ=              0.8905  YZZ=             -2.4326
  YYZ=             -0.0013  XYZ=              0.0018
 Hexadecapole moment (field-independent basis, Debye-Ang**3):
 XXXX=         -10416.8041 YYYY=           -651.8283 ZZZZ=           -134.1511 XXXY=           1904.3630
 XXXZ=             -0.0162 YYYX=            105.4555 YYYZ=             -0.0010 ZZZX=              0.0042
 ZZZY=              0.0005 XXYY=          -3131.2480 XXZZ=          -2748.0250 YYZZ=           -118.7724
 XXYZ=              0.0122 YYXZ=             -0.0053 ZZXY=             -9.3919
 N-N= 1.042775002972D+03 E-N=-4.120218528932D+03  KE= 8.643367853323D+02
 No NMR shielding tensors so no spin-rotation constants.
 Leave Link  601 at Fri Feb 17 11:50:30 2023, MaxMem=    33554432 cpu:         1.8
 (Enter /hits/basement/its/doserbd/software/gaussian/g09d1/g09/l701.exe)
 Compute integral first derivatives.
 ... and contract with generalized density number  0.
 Leave Link  701 at Fri Feb 17 11:50:30 2023, MaxMem=    33554432 cpu:         1.5
 (Enter /hits/basement/its/doserbd/software/gaussian/g09d1/g09/l702.exe)
 L702 exits ... SP integral derivatives will be done elsewhere.
 Leave Link  702 at Fri Feb 17 11:50:30 2023, MaxMem=    33554432 cpu:         0.1
 (Enter /hits/basement/its/doserbd/software/gaussian/g09d1/g09/l703.exe)
 Compute integral first derivatives, UseDBF=F ICtDFT=           0.
 Integral derivatives from FoFJK, PRISM(SPDF).
 Calling FoFJK, ICntrl=      2127 FMM=F ISym2X=0 I1Cent= 0 IOpClX= 0 NMat=1 NMatS=1 NMatT=0.
 FoFJK:  IHMeth= 1 ICntrl=    2127 DoSepK=F KAlg= 0 I1Cent=   0 FoldK=F
 IRaf=         0 NMat=   1 IRICut=       1 DoRegI=T DoRafI=F ISym2E= 0.
 FoFCou: FMM=F IPFlag=           0 FMFlag=      100000 FMFlg1=         800
         NFxFlg=           0 DoJE=F BraDBF=F KetDBF=F FulRan=T
         wScrn=  0.000000 ICntrl=    2127 IOpCl=  0 I1Cent=           0 NGrid=           0
         NMat0=    1 NMatS0=      1 NMatT0=    0 NMatD0=    1 NMtDS0=    0 NMtDT0=    0
 Symmetry not used in FoFCou.
 Leave Link  703 at Fri Feb 17 11:50:34 2023, MaxMem=    33554432 cpu:        31.0
 (Enter /hits/basement/its/doserbd/software/gaussian/g09d1/g09/l716.exe)
 Dipole        =-2.57557601D+00-2.37150009D-01-1.27169897D-05
 ***** Axes restored to original set *****
 -------------------------------------------------------------------
 Center     Atomic                   Forces (Hartrees/Bohr)
 Number     Number              X              Y              Z
 -------------------------------------------------------------------
      1        6           0.000002456    0.000000776   -0.000001039
      2        8           0.000000665   -0.000000099   -0.000000426
      3        6          -0.075532270   -0.000000724    0.003839080
      4        1          -0.000000729    0.000002008    0.000000746
      5        1          -0.000000420    0.000000511   -0.000002005
      6        1          -0.000000783   -0.000001714    0.000000967
      7        7          -0.000000005    0.000000408   -0.000000710
      8        6           0.000000021   -0.000000286   -0.000000099
      9        6          -0.000000033   -0.000000132   -0.000000209
     10        8          -0.000000092   -0.000000095   -0.000000167
     11        1          -0.000000083    0.000000011   -0.000000350
     12        1           0.000000067    0.000000068   -0.000000229
     13        1           0.000000019    0.000000035   -0.000000277
     14        7           0.000000153   -0.000000385   -0.000000082
     15        6          -0.000000081   -0.000000097   -0.000000254
     16        6          -0.000000002    0.000000141    0.000000129
     17        8           0.000000161    0.000000082    0.000000068
     18        1          -0.000000096   -0.000000013    0.000000008
     19        1          -0.000000079   -0.000000044    0.000000029
     20        1          -0.000000066   -0.000000016    0.000000038
     21        7          -0.000000006    0.000000314    0.000000203
     22        6          -0.000000053   -0.000000022    0.000000873
     23        6          -0.000000194   -0.000000257    0.000000462
     24        8          -0.000000006    0.000000056    0.000000177
     25        1          -0.000000087    0.000000011    0.000000130
     26        1           0.000000072    0.000000076    0.000000182
     27        1           0.000000096    0.000000005    0.000000195
     28        7          -0.000001814   -0.000000235   -0.000000934
     29        6           0.075532390   -0.000000567   -0.003838587
     30        1           0.000000226    0.000000075    0.000000504
     31        1           0.000000065    0.000000214    0.000000486
     32        1           0.000000159    0.000001562    0.000000563
     33        1           0.000000349   -0.000001665    0.000000530
 -------------------------------------------------------------------
 Cartesian Forces:  Max     0.075532390 RMS     0.010749554
 -----------------------------------------------------------------------------------------------
                       Internal Coordinate Forces (Hartree/Bohr or radian)
  Cent   Atom   N1       Length/X         N2         Alpha/Y        N3         Beta/Z          J
 -----------------------------------------------------------------------------------------------
      1  C 
      2  O        1   0.000000(     1)
      3  C        1  -0.072339(     2)      2   0.075193(    33)
      4  H        3  -0.000002(     3)      1  -0.000001(    34)      2   0.000001(    64)     0
      5  H        3   0.000002(     4)      1  -0.000001(    35)      4   0.000001(    65)     0
      6  H        3  -0.000001(     5)      1  -0.000002(    36)      4   0.000003(    66)     0
      7  N        1  -0.065442(     6)      2   0.075077(    37)      3   0.000000(    67)     0
      8  C        7  -0.067543(     7)      1  -0.028698(    38)      2   0.000000(    68)     0
      9  C        8  -0.063964(     8)      7  -0.072623(    39)      1   0.000000(    69)     0
     10  O        9   0.000000(     9)      8   0.000000(    40)      7   0.000000(    70)     0
     11  H        7   0.000000(    10)      1   0.000000(    41)      8   0.000000(    71)     0
     12  H        8   0.000000(    11)      7   0.000000(    42)      9   0.000000(    72)     0
     13  H        8   0.000000(    12)      7   0.000000(    43)      9   0.000000(    73)     0
     14  N        9  -0.067968(    13)      8  -0.055119(    44)     10   0.000000(    74)     0
     15  C       14  -0.066509(    14)      9  -0.035368(    45)      8   0.000000(    75)     0
     16  C       15  -0.064186(    15)     14  -0.071520(    46)      9   0.000000(    76)     0
     17  O       16   0.000000(    16)     15   0.000000(    47)     14   0.000000(    77)     0
     18  H       14   0.000000(    17)      9   0.000000(    48)     15   0.000000(    78)     0
     19  H       15   0.000000(    18)     14   0.000000(    49)     16   0.000000(    79)     0
     20  H       15   0.000000(    19)     14   0.000000(    50)     16   0.000000(    80)     0
     21  N       16  -0.068023(    20)     15  -0.055345(    51)     17   0.000000(    81)     0
     22  C       21  -0.066324(    21)     16  -0.034606(    52)     15   0.000000(    82)     0
     23  C       22  -0.065253(    22)     21  -0.073441(    53)     16   0.000000(    83)     0
     24  O       23   0.000000(    23)     22   0.000000(    54)     21   0.000000(    84)     0
     25  H       21   0.000000(    24)     16   0.000000(    55)     22   0.000000(    85)     0
     26  H       22   0.000000(    25)     21   0.000000(    56)     23   0.000000(    86)     0
     27  H       22   0.000000(    26)     21   0.000000(    57)     23   0.000000(    87)     0
     28  N       23  -0.065271(    27)     22  -0.049123(    58)     24   0.000000(    88)     0
     29  C       28  -0.073643(    28)     23  -0.054581(    59)     22  -0.000001(    89)     0
     30  H       28   0.000001(    29)     23   0.000000(    60)     29   0.000000(    90)     0
     31  H       29   0.000000(    30)     28   0.000000(    61)     23   0.000000(    91)     0
     32  H       29  -0.000001(    31)     28   0.000000(    62)     31   0.000002(    92)     0
     33  H       29  -0.000001(    32)     28   0.000000(    63)     31  -0.000002(    93)     0
 -----------------------------------------------------------------------------------------------
 Internal  Forces:  Max     0.075192900 RMS     0.032151911
 Leave Link  716 at Fri Feb 17 11:50:34 2023, MaxMem=    33554432 cpu:         0.4
 (Enter /hits/basement/its/doserbd/software/gaussian/g09d1/g09/l103.exe)

 GradGradGradGradGradGradGradGradGradGradGradGradGradGradGradGradGradGrad
 Berny optimization.
 Search for a local minimum.
 Step number   1 out of a maximum of    2
 All quantities printed in internal units (Hartrees-Bohrs-Radians)
 Second derivative matrix not updated -- first step.
 ITU=  0
     Eigenvalues ---    0.00963   0.01108   0.01112   0.01167   0.01197
     Eigenvalues ---    0.01225   0.01245   0.01601   0.02100   0.02550
     Eigenvalues ---    0.02601   0.03143   0.04508   0.04874   0.05301
     Eigenvalues ---    0.05649   0.06511   0.06569   0.06675   0.09095
     Eigenvalues ---    0.09347   0.09885   0.10085   0.10660   0.13831
     Eigenvalues ---    0.13858   0.14208   0.14391   0.17992   0.18126
     Eigenvalues ---    0.18160   0.18181   0.19082   0.19149   0.19247
     Eigenvalues ---    0.19879   0.19879   0.19880   0.19885   0.21193
     Eigenvalues ---    0.22573   0.25000   0.25000   0.25001   0.25008
     Eigenvalues ---    0.25567   0.25767   0.25936   0.25987   0.26239
     Eigenvalues ---    0.26296   0.29014   0.29573   0.33983   0.33983
     Eigenvalues ---    0.33994   0.33994   0.33998   0.33998   0.34532
     Eigenvalues ---    0.34691   0.34701   0.34701   0.34756   0.34756
     Eigenvalues ---    0.35313   0.35407   0.35444   0.38420   0.39078
     Eigenvalues ---    0.39568   0.40072   0.41274   0.41696   0.43152
     Eigenvalues ---    0.43254   0.43447   0.45236   0.45239   0.45251
     Eigenvalues ---    0.45540   0.53121   0.53121   0.53121   0.53131
     Eigenvalues ---    0.75000   0.75000   0.75002   0.75009   0.87577
     Eigenvalues ---    0.88448   0.88611   0.89961
 Quadratic step=1.216D+00 exceeds max=3.000D-01 adjusted using Lamda=-7.121D-01.
 Angle between NR and scaled steps=  16.89 degrees.
 Angle between quadratic step and forces=   9.24 degrees.
 Linear search not attempted -- first point.
 Variable       Old X    -DE/DX   Delta X   Delta X   Delta X     New X
                                 (Linear)    (Quad)   (Total)
    R2        2.34070   0.00000   0.00000   0.00000   0.00000   2.34070
    R3        3.40656  -0.07234   0.00000  -0.08504  -0.08504   3.32153
    R4        2.06163   0.00000   0.00000   0.00000   0.00000   2.06163
    R5        2.06441   0.00000   0.00000   0.00000   0.00000   2.06442
    R6        2.06163   0.00000   0.00000   0.00000   0.00000   2.06163
    R7        2.73758  -0.06544   0.00000  -0.05969  -0.05969   2.67789
    R8        2.97788  -0.06754   0.00000  -0.06979  -0.06979   2.90809
    R9        3.16578  -0.06396   0.00000  -0.07071  -0.07071   3.09506
   R10        2.33580   0.00000   0.00000   0.00000   0.00000   2.33580
   R11        1.91354   0.00000   0.00000   0.00000   0.00000   1.91354
   R12        2.07358   0.00000   0.00000   0.00000   0.00000   2.07358
   R13        2.07358   0.00000   0.00000   0.00000   0.00000   2.07358
   R14        2.72825  -0.06797   0.00000  -0.06163  -0.06163   2.66663
   R15        2.96887  -0.06651   0.00000  -0.06846  -0.06846   2.90040
   R16        3.17179  -0.06419   0.00000  -0.07109  -0.07109   3.10070
   R17        2.33656   0.00000   0.00000   0.00000   0.00000   2.33656
   R18        1.91699   0.00000   0.00000   0.00000   0.00000   1.91699
   R19        2.07333   0.00000   0.00000   0.00000   0.00000   2.07333
   R20        2.07333   0.00000   0.00000   0.00000   0.00000   2.07333
   R21        2.72145  -0.06802   0.00000  -0.06141  -0.06141   2.66004
   R22        2.97298  -0.06632   0.00000  -0.06839  -0.06839   2.90459
   R23        3.20571  -0.06525   0.00000  -0.07300  -0.07300   3.13271
   R24        2.32951   0.00000   0.00000   0.00000   0.00000   2.32951
   R25        1.91685   0.00000   0.00000   0.00000   0.00000   1.91685
   R26        2.07341   0.00000   0.00000   0.00000   0.00000   2.07341
   R27        2.07341   0.00000   0.00000   0.00000   0.00000   2.07341
   R28        2.71456  -0.06527   0.00000  -0.05865  -0.05865   2.65591
   R29        3.16932  -0.07364   0.00000  -0.08150  -0.08150   3.08782
   R30        1.91703   0.00000   0.00000   0.00000   0.00000   1.91703
   R31        2.06180   0.00000   0.00000   0.00000   0.00000   2.06180
   R32        2.06072   0.00000   0.00000   0.00000   0.00000   2.06072
   R33        2.06072   0.00000   0.00000   0.00000   0.00000   2.06072
    A3        1.91774   0.07519   0.00000   0.05145   0.05145   1.96919
    A4        1.77571   0.00000   0.00000   0.00000   0.00000   1.77571
    A5        1.98335   0.00000   0.00000  -0.00001  -0.00001   1.98334
    A6        1.77576   0.00000   0.00000   0.00000   0.00000   1.77575
    A7        2.04506   0.07508   0.00000   0.05132   0.05132   2.09638
    A8        2.14994  -0.02870   0.00000  -0.02616  -0.02616   2.12378
    A9        2.11216  -0.07262   0.00000  -0.06968  -0.06968   2.04248
   A10        2.06051   0.00000   0.00000   0.00980   0.00980   2.07031
   A11        2.10601   0.00000   0.00000   0.00406   0.00406   2.11006
   A12        1.86088   0.00000   0.00000   0.00423   0.00423   1.86511
   A13        1.86088   0.00000   0.00000   0.00423   0.00423   1.86511
   A14        2.12483  -0.05512   0.00000  -0.04750  -0.04750   2.07733
   A15        2.19144  -0.03537   0.00000  -0.03223  -0.03223   2.15922
   A16        2.08816  -0.07152   0.00000  -0.06873  -0.06873   2.01943
   A17        2.04910   0.00000   0.00000   0.00983   0.00983   2.05894
   A18        2.09010   0.00000   0.00000   0.00500   0.00500   2.09510
   A19        1.86860   0.00000   0.00000   0.00405   0.00405   1.87265
   A20        1.86860   0.00000   0.00000   0.00405   0.00405   1.87265
   A21        2.13202  -0.05535   0.00000  -0.04768  -0.04768   2.08433
   A22        2.18800  -0.03461   0.00000  -0.03154  -0.03154   2.15646
   A23        2.11033  -0.07344   0.00000  -0.07053  -0.07053   2.03980
   A24        2.05616   0.00000   0.00000   0.00873   0.00873   2.06489
   A25        2.09115   0.00000   0.00000   0.00489   0.00489   2.09604
   A26        1.86181   0.00000   0.00000   0.00424   0.00424   1.86605
   A27        1.86181   0.00000   0.00000   0.00424   0.00424   1.86605
   A28        2.08205  -0.04912   0.00000  -0.04233  -0.04233   2.03972
   A29        2.38232  -0.05458   0.00000  -0.04974  -0.04974   2.33259
   A30        1.99366   0.00000   0.00000   0.00771   0.00771   2.00137
   A31        1.85672   0.00000   0.00000   0.00000   0.00000   1.85672
   A32        1.83730   0.00000   0.00000   0.00001   0.00001   1.83731
   A33        1.83732   0.00000   0.00000   0.00001   0.00001   1.83733
    D4        1.01334   0.00000   0.00000   0.00000   0.00000   1.01335
    D5        2.12801   0.00000   0.00000   0.00000   0.00000   2.12801
    D6       -2.02715   0.00000   0.00000  -0.00001  -0.00001  -2.02715
    D7       -3.14158   0.00000   0.00000   0.00000   0.00000  -3.14158
    D8        0.00000   0.00000   0.00000   0.00000   0.00000   0.00000
    D9        3.14157   0.00000   0.00000   0.00000   0.00000   3.14157
   D10       -0.00002   0.00000   0.00000   0.00000   0.00000  -0.00002
   D11        3.14159   0.00000   0.00000   0.00000   0.00000   3.14159
   D12       -2.14003   0.00000   0.00000   0.00413   0.00413  -2.13590
   D13        2.14003   0.00000   0.00000  -0.00413  -0.00413   2.13590
   D14       -3.14159   0.00000   0.00000   0.00000   0.00000  -3.14159
   D15        3.14159   0.00000   0.00000   0.00000   0.00000   3.14159
   D16        3.14157   0.00000   0.00000   0.00000   0.00000   3.14157
   D17        0.00000   0.00000   0.00000   0.00000   0.00000   0.00000
   D18        3.14159   0.00000   0.00000   0.00000   0.00000   3.14159
   D19       -2.13190   0.00000   0.00000   0.00414   0.00414  -2.12776
   D20        2.13190   0.00000   0.00000  -0.00414  -0.00414   2.12776
   D21        3.14159   0.00000   0.00000   0.00000   0.00000   3.14159
   D22       -3.14158   0.00000   0.00000   0.00000   0.00000  -3.14158
   D23        3.14159   0.00000   0.00000   0.00000   0.00000   3.14159
   D24        0.00001   0.00000   0.00000   0.00000   0.00000   0.00001
   D25        3.14159   0.00000   0.00000   0.00000   0.00000   3.14159
   D26       -2.13357   0.00000   0.00000   0.00418   0.00418  -2.12939
   D27        2.13356   0.00000   0.00000  -0.00418  -0.00418   2.12938
   D28        3.14159   0.00000   0.00000   0.00000   0.00000   3.14159
   D29       -3.14158   0.00000   0.00000   0.00000   0.00000  -3.14158
   D30       -3.14159   0.00000   0.00000   0.00000   0.00000  -3.14159
   D31        0.00016   0.00000   0.00000   0.00000   0.00000   0.00016
   D32        2.08891   0.00000   0.00000  -0.00001  -0.00001   2.08889
   D33       -2.08892   0.00000   0.00000   0.00001   0.00001  -2.08890
         Item               Value     Threshold  Converged?
 Maximum Force            0.075193     0.000450     NO 
 RMS     Force            0.032152     0.000300     NO 
 Maximum Displacement     0.085036     0.001800     NO 
 RMS     Displacement     0.031111     0.001200     NO 
 Predicted change in Energy=-7.795800D-02
 GradGradGradGradGradGradGradGradGradGradGradGradGradGradGradGradGradGrad

 Leave Link  103 at Fri Feb 17 11:50:34 2023, MaxMem=    33554432 cpu:         0.3
 (Enter /hits/basement/its/doserbd/software/gaussian/g09d1/g09/l9999.exe)
 1\1\GINC-HASWELL-110\Force\RBMK\6-31+G\C9H16N4O4\SUCERQDL\17-Feb-2023\
 1\\#P bmk/6-31+g force\\Gaussian input prepared by ASE\\0,1\C\O,1,R2\C
 ,1,R3,2,A3\H,3,R4,1,A4,2,D4,0\H,3,R5,1,A5,4,D5,0\H,3,R6,1,A6,4,D6,0\N,
 1,R7,2,A7,3,D7,0\C,7,R8,1,A8,2,D8,0\C,8,R9,7,A9,1,D9,0\O,9,R10,8,A10,7
 ,D10,0\H,7,R11,1,A11,8,D11,0\H,8,R12,7,A12,9,D12,0\H,8,R13,7,A13,9,D13
 ,0\N,9,R14,8,A14,10,D14,0\C,14,R15,9,A15,8,D15,0\C,15,R16,14,A16,9,D16
 ,0\O,16,R17,15,A17,14,D17,0\H,14,R18,9,A18,15,D18,0\H,15,R19,14,A19,16
 ,D19,0\H,15,R20,14,A20,16,D20,0\N,16,R21,15,A21,17,D21,0\C,21,R22,16,A
 22,15,D22,0\C,22,R23,21,A23,16,D23,0\O,23,R24,22,A24,21,D24,0\H,21,R25
 ,16,A25,22,D25,0\H,22,R26,21,A26,23,D26,0\H,22,R27,21,A27,23,D27,0\N,2
 3,R28,22,A28,24,D28,0\C,28,R29,23,A29,22,D29,0\H,28,R30,23,A30,29,D30,
 0\H,29,R31,28,A31,23,D31,0\H,29,R32,28,A32,31,D32,0\H,29,R33,28,A33,31
 ,D33,0\\R2=1.23864629\R3=1.80267646\R4=1.09096632\R5=1.09244086\R6=1.0
 909673\R7=1.44866496\R8=1.57582624\R9=1.67525697\R10=1.23605225\R11=1.
 01260236\R12=1.09729205\R13=1.09729214\R14=1.44372936\R15=1.57105578\R
 16=1.67843891\R17=1.23645617\R18=1.01442816\R19=1.09715894\R20=1.09715
 913\R21=1.44012782\R22=1.57323339\R23=1.69638806\R24=1.23272351\R25=1.
 01435594\R26=1.09720071\R27=1.0972009\R28=1.43648305\R29=1.67713214\R3
 0=1.0144492\R31=1.09105889\R32=1.09048795\R33=1.09048817\A3=109.878327
 29\A4=101.74063365\A5=113.63772998\A6=101.74329698\A7=117.17333125\A8=
 123.18247315\A9=121.01771882\A10=118.05844456\A11=120.66524437\A12=106
 .62029827\A13=106.62034033\A14=121.74365981\A15=125.56049319\A16=119.6
 4277091\A17=117.40482463\A18=119.75392663\A19=107.06308127\A20=107.063
 13915\A21=122.1555361\A22=125.36344988\A23=120.91297479\A24=117.809119
 53\A25=119.81399177\A26=106.67362031\A27=106.6736127\A28=119.29244443\
 A29=136.49710266\A30=114.22846862\A31=106.3820186\A32=105.26938581\A33
 =105.27060495\D4=58.06034702\D5=121.92608241\D6=-116.14697134\D7=-179.
 99937361\D8=-0.00009948\D9=179.99892047\D10=-0.00126044\D11=179.999564
 83\D12=-122.61465709\D13=122.61490253\D14=-179.99975275\D15=179.999580
 8\D16=179.9987188\D17=0.\D18=179.99984681\D19=-122.14888056\D20=122.14
 864943\D21=179.99983499\D22=-179.99952683\D23=179.99979325\D24=0.00079
 415\D25=179.99993547\D26=-122.24459283\D27=122.2441922\D28=179.9996194
 3\D29=-179.99940277\D30=-179.99976347\D31=0.00913913\D32=119.68555655\
 D33=-119.68605305\\Version=ES64L-G09RevD.01\State=1-A\HF=-871.6671671\
 RMSD=2.446e-09\RMSF=1.075e-02\Dipole=-2.5703569,-0.0000011,0.2882659\Q
 uadrupole=28.9405504,-9.1928747,-19.7476758,0.0003468,-26.3052115,0.00
 06512\PG=C01 [X(C9H16N4O4)]\\@


 I FIND THAT THE THREE TRULY GREAT TIMES FOR THINKING THOUGHTS
 ARE WHEN I AM STANDING IN THE SHOWER, SITTING ON THE JOHN, OR WALKING.

                                    -- COLIN FLETCHER
 Job cpu time:       0 days  0 hours  5 minutes 30.6 seconds.
 File lengths (MBytes):  RWF=     71 Int=      0 D2E=      0 Chk=      5 Scr=      1
 Normal termination of Gaussian 09 at Fri Feb 17 11:50:34 2023.
