 Entering Gaussian System, Link 0=g09
 Input=test.com
 Output=test.log
 Initial command:
 /hits/basement/its/doserbd/software/gaussian/g09d1/g09/l1.exe "/hits/basement/mbm/sucerquia/gaussian_scratch/Gau-32402.inp" -scrdir="/hits/basement/mbm/sucerquia/gaussian_scratch/"
 Entering Link 1 = /hits/basement/its/doserbd/software/gaussian/g09d1/g09/l1.exe PID=     32403.
  
 Copyright (c) 1988,1990,1992,1993,1995,1998,2003,2009,2013,
            Gaussian, Inc.  All Rights Reserved.
  
 This is part of the Gaussian(R) 09 program.  It is based on
 the Gaussian(R) 03 system (copyright 2003, Gaussian, Inc.),
 the Gaussian(R) 98 system (copyright 1998, Gaussian, Inc.),
 the Gaussian(R) 94 system (copyright 1995, Gaussian, Inc.),
 the Gaussian 92(TM) system (copyright 1992, Gaussian, Inc.),
 the Gaussian 90(TM) system (copyright 1990, Gaussian, Inc.),
 the Gaussian 88(TM) system (copyright 1988, Gaussian, Inc.),
 the Gaussian 86(TM) system (copyright 1986, Carnegie Mellon
 University), and the Gaussian 82(TM) system (copyright 1983,
 Carnegie Mellon University). Gaussian is a federally registered
 trademark of Gaussian, Inc.
  
 This software contains proprietary and confidential information,
 including trade secrets, belonging to Gaussian, Inc.
  
 This software is provided under written license and may be
 used, copied, transmitted, or stored only in accord with that
 written license.
  
 The following legend is applicable only to US Government
 contracts under FAR:
  
                    RESTRICTED RIGHTS LEGEND
  
 Use, reproduction and disclosure by the US Government is
 subject to restrictions as set forth in subparagraphs (a)
 and (c) of the Commercial Computer Software - Restricted
 Rights clause in FAR 52.227-19.
  
 Gaussian, Inc.
 340 Quinnipiac St., Bldg. 40, Wallingford CT 06492
  
  
 ---------------------------------------------------------------
 Warning -- This program may not be used in any manner that
 competes with the business of Gaussian, Inc. or will provide
 assistance to any competitor of Gaussian, Inc.  The licensee
 of this program is prohibited from giving any competitor of
 Gaussian, Inc. access to this program.  By using this program,
 the user acknowledges that Gaussian, Inc. is engaged in the
 business of creating and licensing software in the field of
 computational chemistry and represents and warrants to the
 licensee that it is not a competitor of Gaussian, Inc. and that
 it will not use this program in any manner prohibited above.
 ---------------------------------------------------------------
  

 Cite this work as:
 Gaussian 09, Revision D.01,
 M. J. Frisch, G. W. Trucks, H. B. Schlegel, G. E. Scuseria, 
 M. A. Robb, J. R. Cheeseman, G. Scalmani, V. Barone, B. Mennucci, 
 G. A. Petersson, H. Nakatsuji, M. Caricato, X. Li, H. P. Hratchian, 
 A. F. Izmaylov, J. Bloino, G. Zheng, J. L. Sonnenberg, M. Hada, 
 M. Ehara, K. Toyota, R. Fukuda, J. Hasegawa, M. Ishida, T. Nakajima, 
 Y. Honda, O. Kitao, H. Nakai, T. Vreven, J. A. Montgomery, Jr., 
 J. E. Peralta, F. Ogliaro, M. Bearpark, J. J. Heyd, E. Brothers, 
 K. N. Kudin, V. N. Staroverov, T. Keith, R. Kobayashi, J. Normand, 
 K. Raghavachari, A. Rendell, J. C. Burant, S. S. Iyengar, J. Tomasi, 
 M. Cossi, N. Rega, J. M. Millam, M. Klene, J. E. Knox, J. B. Cross, 
 V. Bakken, C. Adamo, J. Jaramillo, R. Gomperts, R. E. Stratmann, 
 O. Yazyev, A. J. Austin, R. Cammi, C. Pomelli, J. W. Ochterski, 
 R. L. Martin, K. Morokuma, V. G. Zakrzewski, G. A. Voth, 
 P. Salvador, J. J. Dannenberg, S. Dapprich, A. D. Daniels, 
 O. Farkas, J. B. Foresman, J. V. Ortiz, J. Cioslowski, 
 and D. J. Fox, Gaussian, Inc., Wallingford CT, 2013.
 
 ******************************************
 Gaussian 09:  ES64L-G09RevD.01 24-Apr-2013
                17-Feb-2023 
 ******************************************
 %NProcShared=8
 Will use up to    8 processors via shared memory.
 -------------------
 #P bmk/6-31+g force
 -------------------
 1/10=7,30=1,38=1/1,3;
 2/12=2,17=6,18=5,40=1/2;
 3/5=1,6=6,7=10,11=2,16=1,25=1,30=1,71=1,74=-34/1,2,3;
 4//1;
 5/5=2,38=5/2;
 6/7=2,8=2,9=2,10=2,28=1/1;
 7/29=1/1,2,3,16;
 1/10=7,30=1/3;
 99//99;
 Leave Link    1 at Fri Feb 17 11:47:44 2023, MaxMem=           0 cpu:         0.4
 (Enter /hits/basement/its/doserbd/software/gaussian/g09d1/g09/l101.exe)
 ------------------------------
 Gaussian input prepared by ASE
 ------------------------------
 Symbolic Z-matrix:
 Charge =  0 Multiplicity = 1
 C
 O                    1    R2
 C                    1    R3       2    A3
 H                    3    R4       1    A4       2    D4       0
 H                    3    R5       1    A5       4    D5       0
 H                    3    R6       1    A6       4    D6       0
 N                    1    R7       2    A7       3    D7       0
 C                    7    R8       1    A8       2    D8       0
 C                    8    R9       7    A9       1    D9       0
 O                    9    R10      8    A10      7    D10      0
 H                    7    R11      1    A11      8    D11      0
 H                    8    R12      7    A12      9    D12      0
 H                    8    R13      7    A13      9    D13      0
 N                    9    R14      8    A14      10   D14      0
 C                    14   R15      9    A15      8    D15      0
 C                    15   R16      14   A16      9    D16      0
 O                    16   R17      15   A17      14   D17      0
 H                    14   R18      9    A18      15   D18      0
 H                    15   R19      14   A19      16   D19      0
 H                    15   R20      14   A20      16   D20      0
 N                    16   R21      15   A21      17   D21      0
 C                    21   R22      16   A22      15   D22      0
 C                    22   R23      21   A23      16   D23      0
 O                    23   R24      22   A24      21   D24      0
 H                    21   R25      16   A25      22   D25      0
 H                    22   R26      21   A26      23   D26      0
 H                    22   R27      21   A27      23   D27      0
 N                    23   R28      22   A28      24   D28      0
 C                    28   R29      23   A29      22   D29      0
 H                    28   R30      23   A30      29   D30      0
 H                    29   R31      28   A31      23   D31      0
 H                    29   R32      28   A32      31   D32      0
 H                    29   R33      28   A33      31   D33      0
       Variables:
  R2                    1.24321                  
  R3                    1.69151                  
  R4                    1.09269                  
  R5                    1.0942                   
  R6                    1.09269                  
  R7                    1.42675                  
  R8                    1.54342                  
  R9                    1.63007                  
  R10                   1.23954                  
  R11                   1.01259                  
  R12                   1.09843                  
  R13                   1.09843                  
  R14                   1.42302                  
  R15                   1.53909                  
  R16                   1.63375                  
  R17                   1.24001                  
  R18                   1.01458                  
  R19                   1.09831                  
  R20                   1.09831                  
  R21                   1.42017                  
  R22                   1.54004                  
  R23                   1.64616                  
  R24                   1.23596                  
  R25                   1.01457                  
  R26                   1.09843                  
  R27                   1.09843                  
  R28                   1.4178                   
  R29                   1.60834                  
  R30                   1.01363                  
  R31                   1.09238                  
  R32                   1.09207                  
  R33                   1.09207                  
  A3                  112.9896                   
  A4                  104.2542                   
  A5                  113.65229                  
  A6                  104.25437                  
  A7                  117.49363                  
  A8                  121.8637                   
  A9                  118.81681                  
  A10                 118.9251                   
  A11                 121.66619                  
  A12                 107.36415                  
  A13                 107.36416                  
  A14                 120.39104                  
  A15                 124.74174                  
  A16                 117.02564                  
  A17                 118.09809                  
  A18                 120.47909                  
  A19                 107.91215                  
  A20                 107.91215                  
  A21                 121.12441                  
  A22                 124.24013                  
  A23                 118.53546                  
  A24                 118.80754                  
  A25                 120.62408                  
  A26                 107.45796                  
  A27                 107.45796                  
  A28                 117.93394                  
  A29                 133.96382                  
  A30                 114.82361                  
  A31                 106.9575                   
  A32                 106.95995                  
  A33                 106.95995                  
  D4                   58.19963                  
  D5                  121.79939                  
  D6                 -116.40118                  
  D7                  180.                       
  D8                    0.                       
  D9                  179.99991                  
  D10                   0.                       
  D11                 180.                       
  D12                -122.60735                  
  D13                 122.60733                  
  D14                 180.                       
  D15                 180.                       
  D16                 180.                       
  D17                   0.                       
  D18                 180.                       
  D19                -122.00809                  
  D20                 122.00805                  
  D21                 180.                       
  D22                 180.                       
  D23                 180.                       
  D24                   0.                       
  D25                 180.                       
  D26                -122.19157                  
  D27                 122.19153                  
  D28                 180.                       
  D29                 180.                       
  D30                 180.                       
  D31                   0.                       
  D32                 119.53142                  
  D33                -119.53133                  
 
 NAtoms=     33 NQM=       33 NQMF=       0 NMMI=      0 NMMIF=      0
                NMic=       0 NMicF=      0.
                    Isotopes and Nuclear Properties:
 (Nuclear quadrupole moments (NQMom) in fm**2, nuclear magnetic moments (NMagM)
  in nuclear magnetons)

  Atom         1           2           3           4           5           6           7           8           9          10
 IAtWgt=          12          16          12           1           1           1          14          12          12          16
 AtmWgt=  12.0000000  15.9949146  12.0000000   1.0078250   1.0078250   1.0078250  14.0030740  12.0000000  12.0000000  15.9949146
 NucSpn=           0           0           0           1           1           1           2           0           0           0
 AtZEff=   0.0000000   0.0000000   0.0000000   0.0000000   0.0000000   0.0000000   0.0000000   0.0000000   0.0000000   0.0000000
 NQMom=    0.0000000   0.0000000   0.0000000   0.0000000   0.0000000   0.0000000   2.0440000   0.0000000   0.0000000   0.0000000
 NMagM=    0.0000000   0.0000000   0.0000000   2.7928460   2.7928460   2.7928460   0.4037610   0.0000000   0.0000000   0.0000000
 AtZNuc=   6.0000000   8.0000000   6.0000000   1.0000000   1.0000000   1.0000000   7.0000000   6.0000000   6.0000000   8.0000000

  Atom        11          12          13          14          15          16          17          18          19          20
 IAtWgt=           1           1           1          14          12          12          16           1           1           1
 AtmWgt=   1.0078250   1.0078250   1.0078250  14.0030740  12.0000000  12.0000000  15.9949146   1.0078250   1.0078250   1.0078250
 NucSpn=           1           1           1           2           0           0           0           1           1           1
 AtZEff=   0.0000000   0.0000000   0.0000000   0.0000000   0.0000000   0.0000000   0.0000000   0.0000000   0.0000000   0.0000000
 NQMom=    0.0000000   0.0000000   0.0000000   2.0440000   0.0000000   0.0000000   0.0000000   0.0000000   0.0000000   0.0000000
 NMagM=    2.7928460   2.7928460   2.7928460   0.4037610   0.0000000   0.0000000   0.0000000   2.7928460   2.7928460   2.7928460
 AtZNuc=   1.0000000   1.0000000   1.0000000   7.0000000   6.0000000   6.0000000   8.0000000   1.0000000   1.0000000   1.0000000

  Atom        21          22          23          24          25          26          27          28          29          30
 IAtWgt=          14          12          12          16           1           1           1          14          12           1
 AtmWgt=  14.0030740  12.0000000  12.0000000  15.9949146   1.0078250   1.0078250   1.0078250  14.0030740  12.0000000   1.0078250
 NucSpn=           2           0           0           0           1           1           1           2           0           1
 AtZEff=   0.0000000   0.0000000   0.0000000   0.0000000   0.0000000   0.0000000   0.0000000   0.0000000   0.0000000   0.0000000
 NQMom=    2.0440000   0.0000000   0.0000000   0.0000000   0.0000000   0.0000000   0.0000000   2.0440000   0.0000000   0.0000000
 NMagM=    0.4037610   0.0000000   0.0000000   0.0000000   2.7928460   2.7928460   2.7928460   0.4037610   0.0000000   2.7928460
 AtZNuc=   7.0000000   6.0000000   6.0000000   8.0000000   1.0000000   1.0000000   1.0000000   7.0000000   6.0000000   1.0000000

  Atom        31          32          33
 IAtWgt=           1           1           1
 AtmWgt=   1.0078250   1.0078250   1.0078250
 NucSpn=           1           1           1
 AtZEff=   0.0000000   0.0000000   0.0000000
 NQMom=    0.0000000   0.0000000   0.0000000
 NMagM=    2.7928460   2.7928460   2.7928460
 AtZNuc=   1.0000000   1.0000000   1.0000000
 Leave Link  101 at Fri Feb 17 11:47:44 2023, MaxMem=    33554432 cpu:         1.4
 (Enter /hits/basement/its/doserbd/software/gaussian/g09d1/g09/l103.exe)

 GradGradGradGradGradGradGradGradGradGradGradGradGradGradGradGradGradGrad
 Berny optimization.
 Initialization pass.
                       ----------------------------
                       !    Initial Parameters    !
                       ! (Angstroms and Degrees)  !
 ----------------------                            ----------------------
 !      Name          Value   Derivative information (Atomic Units)     !
 ------------------------------------------------------------------------
 !       R2          1.2432   estimate D2E/DX2                          !
 !       R3          1.6915   estimate D2E/DX2                          !
 !       R4          1.0927   estimate D2E/DX2                          !
 !       R5          1.0942   estimate D2E/DX2                          !
 !       R6          1.0927   estimate D2E/DX2                          !
 !       R7          1.4268   estimate D2E/DX2                          !
 !       R8          1.5434   estimate D2E/DX2                          !
 !       R9          1.6301   estimate D2E/DX2                          !
 !       R10         1.2395   estimate D2E/DX2                          !
 !       R11         1.0126   estimate D2E/DX2                          !
 !       R12         1.0984   estimate D2E/DX2                          !
 !       R13         1.0984   estimate D2E/DX2                          !
 !       R14         1.423    estimate D2E/DX2                          !
 !       R15         1.5391   estimate D2E/DX2                          !
 !       R16         1.6338   estimate D2E/DX2                          !
 !       R17         1.24     estimate D2E/DX2                          !
 !       R18         1.0146   estimate D2E/DX2                          !
 !       R19         1.0983   estimate D2E/DX2                          !
 !       R20         1.0983   estimate D2E/DX2                          !
 !       R21         1.4202   estimate D2E/DX2                          !
 !       R22         1.54     estimate D2E/DX2                          !
 !       R23         1.6462   estimate D2E/DX2                          !
 !       R24         1.236    estimate D2E/DX2                          !
 !       R25         1.0146   estimate D2E/DX2                          !
 !       R26         1.0984   estimate D2E/DX2                          !
 !       R27         1.0984   estimate D2E/DX2                          !
 !       R28         1.4178   estimate D2E/DX2                          !
 !       R29         1.6083   estimate D2E/DX2                          !
 !       R30         1.0136   estimate D2E/DX2                          !
 !       R31         1.0924   estimate D2E/DX2                          !
 !       R32         1.0921   estimate D2E/DX2                          !
 !       R33         1.0921   estimate D2E/DX2                          !
 !       A3        112.9896   estimate D2E/DX2                          !
 !       A4        104.2542   estimate D2E/DX2                          !
 !       A5        113.6523   estimate D2E/DX2                          !
 !       A6        104.2544   estimate D2E/DX2                          !
 !       A7        117.4936   estimate D2E/DX2                          !
 !       A8        121.8637   estimate D2E/DX2                          !
 !       A9        118.8168   estimate D2E/DX2                          !
 !       A10       118.9251   estimate D2E/DX2                          !
 !       A11       121.6662   estimate D2E/DX2                          !
 !       A12       107.3642   estimate D2E/DX2                          !
 !       A13       107.3642   estimate D2E/DX2                          !
 !       A14       120.391    estimate D2E/DX2                          !
 !       A15       124.7417   estimate D2E/DX2                          !
 !       A16       117.0256   estimate D2E/DX2                          !
 !       A17       118.0981   estimate D2E/DX2                          !
 !       A18       120.4791   estimate D2E/DX2                          !
 !       A19       107.9121   estimate D2E/DX2                          !
 !       A20       107.9122   estimate D2E/DX2                          !
 !       A21       121.1244   estimate D2E/DX2                          !
 !       A22       124.2401   estimate D2E/DX2                          !
 !       A23       118.5355   estimate D2E/DX2                          !
 !       A24       118.8075   estimate D2E/DX2                          !
 !       A25       120.6241   estimate D2E/DX2                          !
 !       A26       107.458    estimate D2E/DX2                          !
 !       A27       107.458    estimate D2E/DX2                          !
 !       A28       117.9339   estimate D2E/DX2                          !
 !       A29       133.9638   estimate D2E/DX2                          !
 !       A30       114.8236   estimate D2E/DX2                          !
 !       A31       106.9575   estimate D2E/DX2                          !
 !       A32       106.9599   estimate D2E/DX2                          !
 !       A33       106.9599   estimate D2E/DX2                          !
 !       D4         58.1996   estimate D2E/DX2                          !
 !       D5        121.7994   estimate D2E/DX2                          !
 !       D6       -116.4012   estimate D2E/DX2                          !
 !       D7        180.0      estimate D2E/DX2                          !
 !       D8          0.0      estimate D2E/DX2                          !
 !       D9        179.9999   estimate D2E/DX2                          !
 !       D10         0.0      estimate D2E/DX2                          !
 !       D11       180.0      estimate D2E/DX2                          !
 !       D12      -122.6073   estimate D2E/DX2                          !
 !       D13       122.6073   estimate D2E/DX2                          !
 !       D14       180.0      estimate D2E/DX2                          !
 !       D15       180.0      estimate D2E/DX2                          !
 !       D16       180.0      estimate D2E/DX2                          !
 !       D17         0.0      estimate D2E/DX2                          !
 !       D18       180.0      estimate D2E/DX2                          !
 !       D19      -122.0081   estimate D2E/DX2                          !
 !       D20       122.008    estimate D2E/DX2                          !
 !       D21       180.0      estimate D2E/DX2                          !
 !       D22       180.0      estimate D2E/DX2                          !
 !       D23       180.0      estimate D2E/DX2                          !
 !       D24         0.0      estimate D2E/DX2                          !
 !       D25       180.0      estimate D2E/DX2                          !
 !       D26      -122.1916   estimate D2E/DX2                          !
 !       D27       122.1915   estimate D2E/DX2                          !
 !       D28       180.0      estimate D2E/DX2                          !
 !       D29       180.0      estimate D2E/DX2                          !
 !       D30       180.0      estimate D2E/DX2                          !
 !       D31         0.0      estimate D2E/DX2                          !
 !       D32       119.5314   estimate D2E/DX2                          !
 !       D33      -119.5313   estimate D2E/DX2                          !
 ------------------------------------------------------------------------
 Trust Radius=3.00D-01 FncErr=1.00D-07 GrdErr=1.00D-07
 Number of steps in this run=      2 maximum allowed number of steps=      2.
 GradGradGradGradGradGradGradGradGradGradGradGradGradGradGradGradGradGrad

 Leave Link  103 at Fri Feb 17 11:47:44 2023, MaxMem=    33554432 cpu:         0.1
 (Enter /hits/basement/its/doserbd/software/gaussian/g09d1/g09/l202.exe)
                          Input orientation:                          
 ---------------------------------------------------------------------
 Center     Atomic      Atomic             Coordinates (Angstroms)
 Number     Number       Type             X           Y           Z
 ---------------------------------------------------------------------
      1          6           0        0.000000    0.000000    0.000000
      2          8           0        0.000000    0.000000    1.243210
      3          6           0        1.557167    0.000000   -0.660645
      4          1           0        2.022810   -0.900073   -0.251973
      5          1           0        1.569823   -0.000017   -1.754769
      6          1           0        2.022801    0.900091   -0.252002
      7          7           0       -1.265619    0.000000   -0.658661
      8          6           0       -2.593516    0.000000    0.127990
      9          6           0       -3.997444    0.000002   -0.700324
     10          8           0       -3.962500    0.000004   -1.939372
     11          1           0       -1.339296    0.000000   -1.668569
     12          1           0       -2.587617    0.883127    0.781131
     13          1           0       -2.587618   -0.883129    0.781128
     14          7           0       -5.241217    0.000002   -0.008947
     15          6           0       -6.622304    0.000004   -0.688221
     16          6           0       -7.930766    0.000004    0.290084
     17          8           0       -7.743492    0.000002    1.515868
     18          1           0       -5.266194    0.000001    1.005329
     19          1           0       -6.680945   -0.886190   -1.334368
     20          1           0       -6.680944    0.886201   -1.334365
     21          7           0       -9.246675    0.000006   -0.244012
     22          6           0      -10.528387    0.000006    0.609776
     23          6           0      -11.984602    0.000008   -0.157860
     24          8           0      -12.006427    0.000010   -1.393627
     25          1           0       -9.397216    0.000008   -1.247348
     26          1           0      -10.493163    0.886760    1.257066
     27          1           0      -10.493165   -0.886750    1.257063
     28          7           0      -13.156261    0.000008    0.640503
     29          6           0      -14.730805    0.000010    0.312543
     30          1           0      -12.989893    0.000007    1.640388
     31          1           0      -14.829652    0.000011   -0.775360
     32          1           0      -15.147661   -0.908859    0.751637
     33          1           0      -15.147659    0.908879    0.751638
 ---------------------------------------------------------------------
                    Distance matrix (angstroms):
                    1          2          3          4          5
     1  C    0.000000
     2  O    1.243210   0.000000
     3  C    1.691515   2.459560   0.000000
     4  H    2.228313   2.671603   1.092688   0.000000
     5  H    2.354476   3.384113   1.094197   1.809335   0.000000
     6  H    2.228316   2.671619   1.092688   1.800164   1.809335
     7  N    1.426754   2.284492   2.822787   3.433554   3.039932
     8  C    2.596672   2.823126   4.224940   4.718577   4.569264
     9  C    4.058326   4.444872   5.554753   6.103655   5.666243
    10  O    4.411640   5.082346   5.665852   6.283422   5.535402
    11  H    2.139588   3.205023   3.066824   3.757743   2.910395
    12  H    2.843561   2.772939   4.476367   5.050063   4.949246
    13  H    2.843562   2.772942   4.476369   4.724789   4.949240
    14  N    5.241225   5.388715   6.829549   7.323611   7.031227
    15  C    6.657969   6.898212   8.179517   8.702783   8.261262
    16  C    7.936070   7.987835   9.535448  10.008878   9.718159
    17  O    7.890470   7.748290   9.551935   9.965743   9.870911
    18  H    5.361295   5.271564   7.023798   7.451209   7.372196
    19  H    6.870291   7.215557   8.312985   8.770810   8.308863
    20  H    6.870290   7.215556   8.312985   8.950848   8.308867
    21  N    9.249894   9.365513  10.811873  11.305375  10.921493
    22  C   10.546030  10.547425  12.152143  12.612902  12.327114
    23  C   11.985642  12.066221  13.551100  14.036616  13.648170
    24  O   12.087038  12.292567  13.583386  14.104362  13.581053
    25  H    9.479639   9.721654  10.970084  11.498605  10.978771
    26  H   10.605330  10.530575  12.234150  12.732617  12.464876
    27  H   10.605331  10.530576  12.234150  12.606625  12.464874
    28  N   13.171843  13.170059  14.770849  15.231903  14.919614
    29  C   14.734120  14.760175  16.317020  16.787270  16.431197
    30  H   13.093059  12.995964  14.727924  15.158246  14.950332
    31  H   14.849908  14.966403  16.387221  16.884595  16.428695
    32  H   15.193506  15.182862  16.789040  17.199779  16.928743
    33  H   15.193505  15.182862  16.789039  17.294640  16.928744
                    6          7          8          9         10
     6  H    0.000000
     7  N    3.433546   0.000000
     8  C    4.718574   1.543415   0.000000
     9  C    6.103646   2.732142   1.630067   0.000000
    10  O    6.283407   2.985530   2.479537   1.239540   0.000000
    11  H    3.757728   1.012592   2.191049   2.829001   2.637145
    12  H    4.724786   2.144899   1.098426   2.227607   3.173538
    13  H    5.050069   2.144899   1.098426   2.227606   3.173538
    14  N    7.323605   4.028338   2.651240   1.423016   2.315526
    15  C    8.702774   5.356766   4.110636   2.624888   2.939376
    16  C   10.008872   6.732333   5.339711   4.056098   4.551660
    17  O    9.965741   6.833111   5.333709   4.352515   5.121970
    18  H    7.451207   4.332836   2.812993   2.125790   3.220385
    19  H    8.950838   5.528803   4.430677   2.896295   2.922552
    20  H    8.770796   5.528803   4.430677   2.896295   2.922552
    21  N   11.305366   7.991820   6.663551   5.269027   5.549482
    22  C   12.612895   9.349214   7.949483   6.661049   7.043367
    23  C   14.036607  10.730675   9.395435   8.005558   8.217536
    24  O   14.104350  10.765925   9.535104   8.038936   8.062419
    25  H   11.498593   8.152878   6.941318   5.427410   5.478598
    26  H   12.606618   9.465934   8.029045   6.841935   7.324828
    27  H   12.732614   9.465935   8.029046   6.841936   7.324828
    28  N   15.231895  11.961404  10.575172   9.256444   9.548874
    29  C   16.787262  13.500165  12.138692  10.781045  11.001250
    30  H   15.158241  11.947562  10.505808   9.292098   9.711257
    31  H   16.884585  13.564535  12.269436  10.832468  10.929315
    32  H   17.294634  13.983063  12.602441  11.281027  11.540164
    33  H   17.199770  13.983063  12.602441  11.281027  11.540164
                   11         12         13         14         15
    11  H    0.000000
    12  H    2.887775   0.000000
    13  H    2.887775   1.766255   0.000000
    14  N    4.240205   2.906153   2.906153   0.000000
    15  C    5.373198   4.383788   4.383788   1.539095   0.000000
    16  C    6.876322   5.437856   5.437856   2.706122   1.633755
    17  O    7.152228   5.282310   5.282309   2.930262   2.472867
    18  H    4.750817   2.829303   2.829302   1.014583   2.169595
    19  H    5.424964   4.935702   4.607673   2.148231   1.098311
    20  H    5.424965   4.607674   4.935702   2.148231   1.098311
    21  N    8.034676   6.795136   6.795136   4.012350   2.661700
    22  C    9.467325   7.991564   7.991564   5.323249   4.116100
    23  C   10.751966   9.484985   9.484984   6.745029   5.388462
    24  O   10.670674   9.706877   9.706877   6.905462   5.430137
    25  H    8.068922   7.159977   7.159977   4.336585   2.830683
    26  H    9.650853   7.919860   8.115211   5.474674   4.421993
    27  H    9.650853   8.115212   7.919860   5.474675   4.421994
    28  N   12.040452  10.606410  10.606409   7.941644   6.667692
    29  C   13.537257  12.184272  12.184272   9.495032   8.170026
    30  H   12.111384  10.474998  10.474998   7.922265   6.780016
    31  H   13.519894  12.372146  12.372145   9.619016   8.207811
    32  H   14.048287  12.687269  12.560104   9.977081   8.693730
    33  H   14.048287  12.560104  12.687269   9.977081   8.693730
                   16         17         18         19         20
    16  C    0.000000
    17  O    1.240008   0.000000
    18  H    2.758898   2.529358   0.000000
    19  H    2.232989   3.168311   2.874202   0.000000
    20  H    2.232988   3.168310   2.874202   1.772391   0.000000
    21  N    1.420167   2.314463   4.171940   2.925268   2.925268
    22  C    2.617219   2.928591   5.277038   4.400892   4.400892
    23  C    4.078509   4.559428   6.818358   5.504389   5.504389
    24  O    4.409750   5.161180   7.154421   5.399040   5.399039
    25  H    2.124658   3.220275   4.705305   2.858505   2.858504
    26  H    2.878761   2.900691   5.307628   4.938815   4.609613
    27  H    2.878761   2.900692   5.307628   4.609613   4.938814
    28  N    5.237231   5.483096   7.898497   6.827532   6.827531
    29  C    6.800076   7.090172   9.489932   8.264255   8.264255
    30  H    5.236229   5.247879   7.749763   7.031170   7.031170
    31  H    6.980673   7.447375   9.727825   8.215794   8.215794
    32  H    7.288528   7.498787   9.926418   8.719932   8.902750
    33  H    7.288528   7.498787   9.926418   8.902750   8.719931
                   21         22         23         24         25
    21  N    0.000000
    22  C    1.540045   0.000000
    23  C    2.739282   1.646156   0.000000
    24  O    2.989623   2.489624   1.235959   0.000000
    25  H    1.014567   2.174502   2.807410   2.613308   0.000000
    26  H    2.143198   1.098434   2.238914   3.178438   2.873938
    27  H    2.143198   1.098434   2.238913   3.178437   2.873938
    28  N    4.008395   2.628054   1.417804   2.336622   4.206472
    29  C    5.512298   4.212917   2.786200   3.214537   5.557016
    30  H    4.190781   2.668553   2.060172   3.189428   4.609377
    31  H    5.608205   4.518793   2.911291   2.890130   5.452902
    32  H    6.053015   4.709974   3.414406   3.910953   6.155453
    33  H    6.053015   4.709974   3.414406   3.910952   6.155452
                   26         27         28         29         30
    26  H    0.000000
    27  H    1.773510   0.000000
    28  N    2.873773   2.873773   0.000000
    29  C    4.431259   4.431259   1.608336   0.000000
    30  H    2.677113   2.677112   1.013631   2.189508   0.000000
    31  H    4.870546   4.870546   2.192010   1.092385   3.036536
    32  H    5.014386   4.681910   2.191818   1.092069   2.504372
    33  H    4.681910   5.014385   2.191818   1.092069   2.504372
                   31         32         33
    31  H    0.000000
    32  H    1.805241   0.000000
    33  H    1.805241   1.817739   0.000000
 Stoichiometry    C9H16N4O4
 Framework group  C1[X(C9H16N4O4)]
 Deg. of freedom    93
 Full point group                 C1      NOp   1
 Largest Abelian subgroup         C1      NOp   1
 Largest concise Abelian subgroup C1      NOp   1
                         Standard orientation:                         
 ---------------------------------------------------------------------
 Center     Atomic      Atomic             Coordinates (Angstroms)
 Number     Number       Type             X           Y           Z
 ---------------------------------------------------------------------
      1          6           0        6.464792   -0.271564    0.000001
      2          8           0        6.430462   -1.514300    0.000002
      3          6           0        8.039608    0.345830    0.000001
      4          1           0        8.493789   -0.075546   -0.900071
      5          1           0        8.082472    1.439187   -0.000017
      6          1           0        8.493779   -0.075514    0.900093
      7          7           0        5.217843    0.421795   -0.000001
      8          6           0        3.868730   -0.327888   -0.000001
      9          6           0        2.488211    0.538879   -0.000001
     10          8           0        2.557356    1.776489    0.000000
     11          1           0        5.172082    1.433352   -0.000002
     12          1           0        3.856591   -0.980942    0.883126
     13          1           0        3.856591   -0.980941   -0.883129
     14          7           0        1.225820   -0.117890   -0.000001
     15          6           0       -0.135982    0.599262    0.000000
     16          6           0       -1.470961   -0.342538    0.000000
     17          8           0       -1.317606   -1.573026   -0.000001
     18          1           0        1.172845   -1.131089   -0.000001
     19          1           0       -0.176758    1.246782   -0.886195
     20          1           0       -0.176758    1.246780    0.886196
     21          7           0       -2.771619    0.227692    0.000000
     22          6           0       -4.076418   -0.590378    0.000000
     23          6           0       -5.510881    0.217178    0.000000
     24          8           0       -5.498574    1.453076    0.000001
     25          1           0       -2.894397    1.234802    0.000000
     26          1           0       -4.059083   -1.238392    0.886754
     27          1           0       -4.059083   -1.238391   -0.886756
     28          7           0       -6.704139   -0.548527    0.000000
     29          6           0       -8.269026   -0.177213    0.000001
     30          1           0       -6.565446   -1.552625    0.000000
     31          1           0       -8.337795    0.913005    0.000001
     32          1           0       -8.697848   -0.604630   -0.908868
     33          1           0       -8.697848   -0.604629    0.908870
 ---------------------------------------------------------------------
 Rotational constants (GHZ):      2.3711619      0.0850293      0.0823006
 Leave Link  202 at Fri Feb 17 11:47:44 2023, MaxMem=    33554432 cpu:         0.1
 (Enter /hits/basement/its/doserbd/software/gaussian/g09d1/g09/l301.exe)
 Standard basis: 6-31+G (6D, 7F)
 Ernie: Thresh=  0.10000D-02 Tol=  0.10000D-05 Strict=F.
 There are   253 symmetry adapted cartesian basis functions of A   symmetry.
 There are   253 symmetry adapted basis functions of A   symmetry.
   253 basis functions,   506 primitive gaussians,   253 cartesian basis functions
    65 alpha electrons       65 beta electrons
       nuclear repulsion energy      1065.7314721207 Hartrees.
 IExCor= 3226 DFT=T Ex+Corr=BMK ExCW=0 ScaHFX=  0.420000
 ScaDFX=  1.000000  1.000000  1.000000  1.000000 ScalE2=  1.000000  1.000000
 IRadAn=      0 IRanWt=     -1 IRanGd=            0 ICorTp=0 IEmpDi=  4
 NAtoms=   33 NActive=   33 NUniq=   33 SFac= 1.00D+00 NAtFMM=   60 NAOKFM=F Big=F
 Integral buffers will be    131072 words long.
 Raffenetti 2 integral format.
 Two-electron integral symmetry is turned on.
 Leave Link  301 at Fri Feb 17 11:47:44 2023, MaxMem=    33554432 cpu:         0.3
 (Enter /hits/basement/its/doserbd/software/gaussian/g09d1/g09/l302.exe)
 NPDir=0 NMtPBC=     1 NCelOv=     1 NCel=       1 NClECP=     1 NCelD=      1
         NCelK=      1 NCelE2=     1 NClLst=     1 CellRange=     0.0.
 One-electron integrals computed using PRISM.
 NBasis=   253 RedAO= T EigKep=  1.08D-05  NBF=   253
 NBsUse=   253 1.00D-06 EigRej= -1.00D+00 NBFU=   253
 Precomputing XC quadrature grid using
 IXCGrd= 4 IRadAn=           0 IRanWt=          -1 IRanGd=           0 AccXCQ= 0.00D+00.
 Generated NRdTot=       0 NPtTot=           0 NUsed=           0 NTot=          32
 NSgBfM=   242   242   242   242   242 MxSgAt=    33 MxSgA2=    33.
 Leave Link  302 at Fri Feb 17 11:47:45 2023, MaxMem=    33554432 cpu:         2.7
 (Enter /hits/basement/its/doserbd/software/gaussian/g09d1/g09/l303.exe)
 DipDrv:  MaxL=1.
 Leave Link  303 at Fri Feb 17 11:47:45 2023, MaxMem=    33554432 cpu:         0.3
 (Enter /hits/basement/its/doserbd/software/gaussian/g09d1/g09/l401.exe)
 ExpMin= 4.38D-02 ExpMax= 5.48D+03 ExpMxC= 8.25D+02 IAcc=2 IRadAn=         4 AccDes= 0.00D+00
 Harris functional with IExCor= 1009 and IRadAn=       4 diagonalized for initial guess.
 HarFok:  IExCor= 1009 AccDes= 0.00D+00 IRadAn=         4 IDoV= 1 UseB2=F ITyADJ=14
 ICtDFT=  3500011 ScaDFX=  1.000000  1.000000  1.000000  1.000000
 FoFCou: FMM=F IPFlag=           0 FMFlag=      100000 FMFlg1=           0
         NFxFlg=           0 DoJE=T BraDBF=F KetDBF=T FulRan=T
         wScrn=  0.000000 ICntrl=     500 IOpCl=  0 I1Cent=   200000004 NGrid=           0
         NMat0=    1 NMatS0=      1 NMatT0=    0 NMatD0=    1 NMtDS0=    0 NMtDT0=    0
 Petite list used in FoFCou.
 Harris En= -871.421591541704    
 JPrj=0 DoOrth=F DoCkMO=F.
 Leave Link  401 at Fri Feb 17 11:47:46 2023, MaxMem=    33554432 cpu:         7.8
 (Enter /hits/basement/its/doserbd/software/gaussian/g09d1/g09/l502.exe)
 Closed shell SCF:
 Using DIIS extrapolation, IDIIS=  1040.
 Integral symmetry usage will be decided dynamically.
 IVT=      214538 IEndB=      214538 NGot=    33554432 MDV=    33420797
 LenX=    33420797 LenY=    33356347
 Requested convergence on RMS density matrix=1.00D-08 within 128 cycles.
 Requested convergence on MAX density matrix=1.00D-06.
 Requested convergence on             energy=1.00D-06.
 No special actions if energy rises.
 Fock matrices will be formed incrementally for  20 cycles.

 Cycle   1  Pass 1  IDiag  1:
 FoFJK:  IHMeth= 1 ICntrl=       0 DoSepK=F KAlg= 0 I1Cent=   0 FoldK=F
 IRaf= 700000000 NMat=   1 IRICut=       1 DoRegI=T DoRafI=F ISym2E= 0.
 FoFCou: FMM=F IPFlag=           0 FMFlag=      100000 FMFlg1=           0
         NFxFlg=           0 DoJE=F BraDBF=F KetDBF=F FulRan=T
         wScrn=  0.000000 ICntrl=       0 IOpCl=  0 I1Cent=           0 NGrid=           0
         NMat0=    1 NMatS0=      1 NMatT0=    0 NMatD0=    1 NMtDS0=    0 NMtDT0=    0
 Symmetry not used in FoFCou.
 E= -871.333177575539    
 DIIS: error= 3.29D-02 at cycle   1 NSaved=   1.
 NSaved= 1 IEnMin= 1 EnMin= -871.333177575539     IErMin= 1 ErrMin= 3.29D-02
 ErrMax= 3.29D-02  0.00D+00 EMaxC= 1.00D-01 BMatC= 4.83D-01 BMatP= 4.83D-01
 IDIUse=3 WtCom= 6.71D-01 WtEn= 3.29D-01
 Coeff-Com:  0.100D+01
 Coeff-En:   0.100D+01
 Coeff:      0.100D+01
 Gap=     0.318 Goal=   None    Shift=    0.000
 GapD=    0.318 DampG=1.000 DampE=0.500 DampFc=0.5000 IDamp=-1.
 Damping current iteration by 5.00D-01
 RMSDP=2.64D-02 MaxDP=1.72D+00              OVMax= 2.91D-01

 Cycle   2  Pass 1  IDiag  1:
 RMSU=  1.07D-02    CP:  1.18D+00
 E= -871.418412097087     Delta-E=       -0.085234521548 Rises=F Damp=T
 DIIS: error= 1.72D-02 at cycle   2 NSaved=   2.
 NSaved= 2 IEnMin= 2 EnMin= -871.418412097087     IErMin= 2 ErrMin= 1.72D-02
 ErrMax= 1.72D-02  0.00D+00 EMaxC= 1.00D-01 BMatC= 8.84D-02 BMatP= 4.83D-01
 IDIUse=3 WtCom= 8.28D-01 WtEn= 1.72D-01
 Coeff-Com:  0.261D+00 0.739D+00
 Coeff-En:   0.397D+00 0.603D+00
 Coeff:      0.284D+00 0.716D+00
 Gap=     0.309 Goal=   None    Shift=    0.000
 RMSDP=1.36D-02 MaxDP=1.14D+00 DE=-8.52D-02 OVMax= 1.50D-01

 Cycle   3  Pass 1  IDiag  1:
 RMSU=  5.94D-03    CP:  9.41D-01  3.85D-01
 E= -871.722907500470     Delta-E=       -0.304495403383 Rises=F Damp=F
 DIIS: error= 1.07D-02 at cycle   3 NSaved=   3.
 NSaved= 3 IEnMin= 3 EnMin= -871.722907500470     IErMin= 3 ErrMin= 1.07D-02
 ErrMax= 1.07D-02  0.00D+00 EMaxC= 1.00D-01 BMatC= 2.46D-02 BMatP= 8.84D-02
 IDIUse=3 WtCom= 8.93D-01 WtEn= 1.07D-01
 Coeff-Com:  0.992D-01 0.355D+00 0.546D+00
 Coeff-En:   0.000D+00 0.000D+00 0.100D+01
 Coeff:      0.886D-01 0.317D+00 0.595D+00
 Gap=     0.315 Goal=   None    Shift=    0.000
 RMSDP=1.43D-03 MaxDP=5.74D-02 DE=-3.04D-01 OVMax= 3.93D-02

 Cycle   4  Pass 1  IDiag  1:
 RMSU=  1.38D-03    CP:  9.40D-01  4.13D-01  1.04D+00
 E= -871.743474076445     Delta-E=       -0.020566575975 Rises=F Damp=F
 DIIS: error= 3.83D-03 at cycle   4 NSaved=   4.
 NSaved= 4 IEnMin= 4 EnMin= -871.743474076445     IErMin= 4 ErrMin= 3.83D-03
 ErrMax= 3.83D-03  0.00D+00 EMaxC= 1.00D-01 BMatC= 3.63D-03 BMatP= 2.46D-02
 IDIUse=3 WtCom= 9.62D-01 WtEn= 3.83D-02
 Coeff-Com:  0.175D-01 0.373D-01 0.281D+00 0.665D+00
 Coeff-En:   0.000D+00 0.000D+00 0.655D-01 0.934D+00
 Coeff:      0.168D-01 0.359D-01 0.272D+00 0.675D+00
 Gap=     0.313 Goal=   None    Shift=    0.000
 RMSDP=5.15D-04 MaxDP=2.20D-02 DE=-2.06D-02 OVMax= 1.07D-02

 Cycle   5  Pass 1  IDiag  1:
 RMSU=  3.25D-04    CP:  9.36D-01  3.85D-01  1.04D+00  8.59D-01
 E= -871.746284064755     Delta-E=       -0.002809988310 Rises=F Damp=F
 DIIS: error= 7.60D-04 at cycle   5 NSaved=   5.
 NSaved= 5 IEnMin= 5 EnMin= -871.746284064755     IErMin= 5 ErrMin= 7.60D-04
 ErrMax= 7.60D-04  0.00D+00 EMaxC= 1.00D-01 BMatC= 2.90D-04 BMatP= 3.63D-03
 IDIUse=3 WtCom= 9.92D-01 WtEn= 7.60D-03
 Coeff-Com:  0.284D-02-0.131D-01 0.934D-01 0.337D+00 0.580D+00
 Coeff-En:   0.000D+00 0.000D+00 0.000D+00 0.000D+00 0.100D+01
 Coeff:      0.281D-02-0.130D-01 0.926D-01 0.334D+00 0.583D+00
 Gap=     0.313 Goal=   None    Shift=    0.000
 RMSDP=2.51D-04 MaxDP=1.86D-02 DE=-2.81D-03 OVMax= 3.53D-03

 Cycle   6  Pass 1  IDiag  1:
 RMSU=  1.42D-04    CP:  9.32D-01  3.77D-01  1.05D+00  8.78D-01  7.89D-01
 E= -871.746546043720     Delta-E=       -0.000261978965 Rises=F Damp=F
 DIIS: error= 2.80D-04 at cycle   6 NSaved=   6.
 NSaved= 6 IEnMin= 6 EnMin= -871.746546043720     IErMin= 6 ErrMin= 2.80D-04
 ErrMax= 2.80D-04  0.00D+00 EMaxC= 1.00D-01 BMatC= 2.28D-05 BMatP= 2.90D-04
 IDIUse=3 WtCom= 9.97D-01 WtEn= 2.80D-03
 Coeff-Com:  0.169D-02-0.948D-02 0.334D-01 0.122D+00 0.283D+00 0.569D+00
 Coeff-En:   0.000D+00 0.000D+00 0.000D+00 0.000D+00 0.000D+00 0.100D+01
 Coeff:      0.168D-02-0.945D-02 0.333D-01 0.122D+00 0.283D+00 0.570D+00
 Gap=     0.313 Goal=   None    Shift=    0.000
 RMSDP=8.43D-05 MaxDP=6.49D-03 DE=-2.62D-04 OVMax= 9.48D-04

 Cycle   7  Pass 1  IDiag  1:
 RMSU=  4.96D-05    CP:  9.31D-01  3.73D-01  1.05D+00  8.69D-01  8.33D-01
                    CP:  8.84D-01
 E= -871.746562272418     Delta-E=       -0.000016228698 Rises=F Damp=F
 DIIS: error= 1.21D-04 at cycle   7 NSaved=   7.
 NSaved= 7 IEnMin= 7 EnMin= -871.746562272418     IErMin= 7 ErrMin= 1.21D-04
 ErrMax= 1.21D-04  0.00D+00 EMaxC= 1.00D-01 BMatC= 4.94D-06 BMatP= 2.28D-05
 IDIUse=3 WtCom= 9.99D-01 WtEn= 1.21D-03
 Coeff-Com:  0.954D-03-0.376D-02 0.100D-02-0.249D-02 0.501D-01 0.329D+00
 Coeff-Com:  0.626D+00
 Coeff-En:   0.000D+00 0.000D+00 0.000D+00 0.000D+00 0.000D+00 0.000D+00
 Coeff-En:   0.100D+01
 Coeff:      0.953D-03-0.376D-02 0.100D-02-0.249D-02 0.500D-01 0.328D+00
 Coeff:      0.626D+00
 Gap=     0.313 Goal=   None    Shift=    0.000
 RMSDP=3.59D-05 MaxDP=1.96D-03 DE=-1.62D-05 OVMax= 4.25D-04

 Cycle   8  Pass 1  IDiag  1:
 RMSU=  2.03D-05    CP:  9.30D-01  3.72D-01  1.05D+00  8.73D-01  8.39D-01
                    CP:  9.63D-01  7.66D-01
 E= -871.746566090309     Delta-E=       -0.000003817891 Rises=F Damp=F
 DIIS: error= 3.53D-05 at cycle   8 NSaved=   8.
 NSaved= 8 IEnMin= 8 EnMin= -871.746566090309     IErMin= 8 ErrMin= 3.53D-05
 ErrMax= 3.53D-05  0.00D+00 EMaxC= 1.00D-01 BMatC= 6.14D-07 BMatP= 4.94D-06
 IDIUse=1 WtCom= 1.00D+00 WtEn= 0.00D+00
 Coeff-Com:  0.373D-03-0.523D-03-0.516D-02-0.248D-01-0.231D-01 0.689D-01
 Coeff-Com:  0.335D+00 0.649D+00
 Coeff:      0.373D-03-0.523D-03-0.516D-02-0.248D-01-0.231D-01 0.689D-01
 Coeff:      0.335D+00 0.649D+00
 Gap=     0.313 Goal=   None    Shift=    0.000
 RMSDP=1.50D-05 MaxDP=7.54D-04 DE=-3.82D-06 OVMax= 1.82D-04

 Cycle   9  Pass 1  IDiag  1:
 RMSU=  6.68D-06    CP:  9.30D-01  3.71D-01  1.05D+00  8.71D-01  8.57D-01
                    CP:  9.35D-01  8.76D-01  1.12D+00
 E= -871.746566674023     Delta-E=       -0.000000583714 Rises=F Damp=F
 DIIS: error= 6.59D-06 at cycle   9 NSaved=   9.
 NSaved= 9 IEnMin= 9 EnMin= -871.746566674023     IErMin= 9 ErrMin= 6.59D-06
 ErrMax= 6.59D-06  0.00D+00 EMaxC= 1.00D-01 BMatC= 2.04D-08 BMatP= 6.14D-07
 IDIUse=1 WtCom= 1.00D+00 WtEn= 0.00D+00
 Coeff-Com: -0.109D-04 0.204D-03-0.787D-03-0.409D-02-0.855D-02-0.263D-01
 Coeff-Com: -0.718D-03 0.161D+00 0.879D+00
 Coeff:     -0.109D-04 0.204D-03-0.787D-03-0.409D-02-0.855D-02-0.263D-01
 Coeff:     -0.718D-03 0.161D+00 0.879D+00
 Gap=     0.313 Goal=   None    Shift=    0.000
 RMSDP=2.90D-06 MaxDP=9.22D-05 DE=-5.84D-07 OVMax= 4.64D-05

 Cycle  10  Pass 1  IDiag  1:
 RMSU=  1.61D-06    CP:  9.30D-01  3.71D-01  1.05D+00  8.71D-01  8.58D-01
                    CP:  9.45D-01  8.87D-01  1.15D+00  9.86D-01
 E= -871.746566699313     Delta-E=       -0.000000025290 Rises=F Damp=F
 DIIS: error= 1.90D-06 at cycle  10 NSaved=  10.
 NSaved=10 IEnMin=10 EnMin= -871.746566699313     IErMin=10 ErrMin= 1.90D-06
 ErrMax= 1.90D-06  0.00D+00 EMaxC= 1.00D-01 BMatC= 1.98D-09 BMatP= 2.04D-08
 IDIUse=1 WtCom= 1.00D+00 WtEn= 0.00D+00
 Coeff-Com: -0.214D-04 0.116D-03-0.118D-03-0.794D-03-0.285D-02-0.147D-01
 Coeff-Com: -0.145D-01 0.465D-01 0.390D+00 0.597D+00
 Coeff:     -0.214D-04 0.116D-03-0.118D-03-0.794D-03-0.285D-02-0.147D-01
 Coeff:     -0.145D-01 0.465D-01 0.390D+00 0.597D+00
 Gap=     0.313 Goal=   None    Shift=    0.000
 RMSDP=5.56D-07 MaxDP=2.63D-05 DE=-2.53D-08 OVMax= 9.61D-06

 Cycle  11  Pass 1  IDiag  1:
 RMSU=  4.44D-07    CP:  9.30D-01  3.71D-01  1.05D+00  8.70D-01  8.59D-01
                    CP:  9.44D-01  8.91D-01  1.15D+00  9.98D-01  9.67D-01
 E= -871.746566701047     Delta-E=       -0.000000001735 Rises=F Damp=F
 DIIS: error= 7.61D-07 at cycle  11 NSaved=  11.
 NSaved=11 IEnMin=11 EnMin= -871.746566701047     IErMin=11 ErrMin= 7.61D-07
 ErrMax= 7.61D-07  0.00D+00 EMaxC= 1.00D-01 BMatC= 2.68D-10 BMatP= 1.98D-09
 IDIUse=1 WtCom= 1.00D+00 WtEn= 0.00D+00
 Coeff-Com: -0.881D-05 0.287D-04 0.550D-04 0.162D-03-0.174D-03-0.324D-02
 Coeff-Com: -0.642D-02-0.207D-03 0.606D-01 0.280D+00 0.670D+00
 Coeff:     -0.881D-05 0.287D-04 0.550D-04 0.162D-03-0.174D-03-0.324D-02
 Coeff:     -0.642D-02-0.207D-03 0.606D-01 0.280D+00 0.670D+00
 Gap=     0.313 Goal=   None    Shift=    0.000
 RMSDP=3.12D-07 MaxDP=2.65D-05 DE=-1.73D-09 OVMax= 5.02D-06

 Cycle  12  Pass 1  IDiag  1:
 RMSU=  1.68D-07    CP:  9.30D-01  3.71D-01  1.05D+00  8.70D-01  8.58D-01
                    CP:  9.44D-01  8.90D-01  1.15D+00  1.00D+00  1.01D+00
                    CP:  7.85D-01
 E= -871.746566701253     Delta-E=       -0.000000000205 Rises=F Damp=F
 DIIS: error= 5.57D-07 at cycle  12 NSaved=  12.
 NSaved=12 IEnMin=12 EnMin= -871.746566701253     IErMin=12 ErrMin= 5.57D-07
 ErrMax= 5.57D-07  0.00D+00 EMaxC= 1.00D-01 BMatC= 6.78D-11 BMatP= 2.68D-10
 IDIUse=1 WtCom= 1.00D+00 WtEn= 0.00D+00
 Coeff-Com: -0.258D-05 0.269D-05 0.497D-04 0.193D-03 0.266D-03-0.242D-04
 Coeff-Com: -0.201D-02-0.636D-02-0.143D-01 0.922D-01 0.402D+00 0.528D+00
 Coeff:     -0.258D-05 0.269D-05 0.497D-04 0.193D-03 0.266D-03-0.242D-04
 Coeff:     -0.201D-02-0.636D-02-0.143D-01 0.922D-01 0.402D+00 0.528D+00
 Gap=     0.313 Goal=   None    Shift=    0.000
 RMSDP=1.19D-07 MaxDP=7.61D-06 DE=-2.05D-10 OVMax= 1.73D-06

 Cycle  13  Pass 1  IDiag  1:
 RMSU=  6.62D-08    CP:  9.30D-01  3.71D-01  1.05D+00  8.70D-01  8.58D-01
                    CP:  9.44D-01  8.90D-01  1.15D+00  1.01D+00  1.01D+00
                    CP:  8.73D-01  7.09D-01
 E= -871.746566701270     Delta-E=       -0.000000000017 Rises=F Damp=F
 DIIS: error= 1.77D-07 at cycle  13 NSaved=  13.
 NSaved=13 IEnMin=13 EnMin= -871.746566701270     IErMin=13 ErrMin= 1.77D-07
 ErrMax= 1.77D-07  0.00D+00 EMaxC= 1.00D-01 BMatC= 5.45D-12 BMatP= 6.78D-11
 IDIUse=1 WtCom= 1.00D+00 WtEn= 0.00D+00
 Coeff-Com: -0.546D-06-0.697D-06 0.216D-04 0.817D-04 0.150D-03 0.253D-03
 Coeff-Com: -0.557D-03-0.330D-02-0.122D-01 0.230D-01 0.148D+00 0.285D+00
 Coeff-Com:  0.560D+00
 Coeff:     -0.546D-06-0.697D-06 0.216D-04 0.817D-04 0.150D-03 0.253D-03
 Coeff:     -0.557D-03-0.330D-02-0.122D-01 0.230D-01 0.148D+00 0.285D+00
 Coeff:      0.560D+00
 Gap=     0.313 Goal=   None    Shift=    0.000
 RMSDP=3.33D-08 MaxDP=1.92D-06 DE=-1.73D-11 OVMax= 5.08D-07

 Cycle  14  Pass 1  IDiag  1:
 RMSU=  2.01D-08    CP:  9.30D-01  3.71D-01  1.05D+00  8.70D-01  8.58D-01
                    CP:  9.44D-01  8.90D-01  1.15D+00  1.01D+00  1.02D+00
                    CP:  8.53D-01  7.54D-01  8.94D-01
 E= -871.746566701310     Delta-E=       -0.000000000040 Rises=F Damp=F
 DIIS: error= 3.03D-08 at cycle  14 NSaved=  14.
 NSaved=14 IEnMin=14 EnMin= -871.746566701310     IErMin=14 ErrMin= 3.03D-08
 ErrMax= 3.03D-08  0.00D+00 EMaxC= 1.00D-01 BMatC= 4.12D-13 BMatP= 5.45D-12
 IDIUse=1 WtCom= 1.00D+00 WtEn= 0.00D+00
 Coeff-Com:  0.243D-06-0.784D-06 0.178D-05 0.276D-05 0.242D-04 0.125D-03
 Coeff-Com:  0.772D-04-0.428D-03-0.301D-02-0.561D-02-0.453D-02 0.344D-01
 Coeff-Com:  0.237D+00 0.742D+00
 Coeff:      0.243D-06-0.784D-06 0.178D-05 0.276D-05 0.242D-04 0.125D-03
 Coeff:      0.772D-04-0.428D-03-0.301D-02-0.561D-02-0.453D-02 0.344D-01
 Coeff:      0.237D+00 0.742D+00
 Gap=     0.313 Goal=   None    Shift=    0.000
 RMSDP=9.64D-09 MaxDP=4.52D-07 DE=-4.05D-11 OVMax= 9.45D-08

 SCF Done:  E(RBMK) =  -871.746566701     A.U. after   14 cycles
            NFock= 14  Conv=0.96D-08     -V/T= 2.0079
 KE= 8.648719807304D+02 PE=-4.166479576288D+03 EE= 1.364129556735D+03
 Leave Link  502 at Fri Feb 17 11:48:21 2023, MaxMem=    33554432 cpu:       278.3
 (Enter /hits/basement/its/doserbd/software/gaussian/g09d1/g09/l601.exe)
 Copying SCF densities to generalized density rwf, IOpCl= 0 IROHF=0.

 **********************************************************************

            Population analysis using the SCF density.

 **********************************************************************

 Orbital symmetries:
       Occupied  (A) (A) (A) (A) (A) (A) (A) (A) (A) (A) (A) (A)
                 (A) (A) (A) (A) (A) (A) (A) (A) (A) (A) (A) (A)
                 (A) (A) (A) (A) (A) (A) (A) (A) (A) (A) (A) (A)
                 (A) (A) (A) (A) (A) (A) (A) (A) (A) (A) (A) (A)
                 (A) (A) (A) (A) (A) (A) (A) (A) (A) (A) (A) (A)
                 (A) (A) (A) (A) (A)
       Virtual   (A) (A) (A) (A) (A) (A) (A) (A) (A) (A) (A) (A)
                 (A) (A) (A) (A) (A) (A) (A) (A) (A) (A) (A) (A)
                 (A) (A) (A) (A) (A) (A) (A) (A) (A) (A) (A) (A)
                 (A) (A) (A) (A) (A) (A) (A) (A) (A) (A) (A) (A)
                 (A) (A) (A) (A) (A) (A) (A) (A) (A) (A) (A) (A)
                 (A) (A) (A) (A) (A) (A) (A) (A) (A) (A) (A) (A)
                 (A) (A) (A) (A) (A) (A) (A) (A) (A) (A) (A) (A)
                 (A) (A) (A) (A) (A) (A) (A) (A) (A) (A) (A) (A)
                 (A) (A) (A) (A) (A) (A) (A) (A) (A) (A) (A) (A)
                 (A) (A) (A) (A) (A) (A) (A) (A) (A) (A) (A) (A)
                 (A) (A) (A) (A) (A) (A) (A) (A) (A) (A) (A) (A)
                 (A) (A) (A) (A) (A) (A) (A) (A) (A) (A) (A) (A)
                 (A) (A) (A) (A) (A) (A) (A) (A) (A) (A) (A) (A)
                 (A) (A) (A) (A) (A) (A) (A) (A) (A) (A) (A) (A)
                 (A) (A) (A) (A) (A) (A) (A) (A) (A) (A) (A) (A)
                 (A) (A) (A) (A) (A) (A) (A) (A)
 The electronic state is 1-A.
 Alpha  occ. eigenvalues --  -19.55258 -19.55160 -19.54405 -19.52128 -14.73816
 Alpha  occ. eigenvalues --  -14.73685 -14.72994 -14.71711 -10.64278 -10.64266
 Alpha  occ. eigenvalues --  -10.63392 -10.61463 -10.56377 -10.55990 -10.54738
 Alpha  occ. eigenvalues --  -10.54641 -10.49607  -1.16560  -1.16232  -1.15587
 Alpha  occ. eigenvalues --   -1.13580  -1.00723  -1.00074  -0.99902  -0.98046
 Alpha  occ. eigenvalues --   -0.83627  -0.81683  -0.79792  -0.78216  -0.76509
 Alpha  occ. eigenvalues --   -0.66509  -0.65263  -0.65026  -0.63655  -0.60857
 Alpha  occ. eigenvalues --   -0.57610  -0.54743  -0.54273  -0.53496  -0.53379
 Alpha  occ. eigenvalues --   -0.52186  -0.51897  -0.51802  -0.50989  -0.50730
 Alpha  occ. eigenvalues --   -0.49651  -0.48595  -0.48523  -0.46725  -0.46133
 Alpha  occ. eigenvalues --   -0.45686  -0.45355  -0.44863  -0.44253  -0.43096
 Alpha  occ. eigenvalues --   -0.42854  -0.40703  -0.33144  -0.32561  -0.32370
 Alpha  occ. eigenvalues --   -0.31918  -0.31591  -0.30930  -0.29504  -0.29429
 Alpha virt. eigenvalues --    0.01874   0.02226   0.02258   0.02717   0.03050
 Alpha virt. eigenvalues --    0.03932   0.04157   0.04513   0.04744   0.06091
 Alpha virt. eigenvalues --    0.06579   0.07018   0.07303   0.07452   0.07848
 Alpha virt. eigenvalues --    0.08885   0.09134   0.09408   0.09653   0.10162
 Alpha virt. eigenvalues --    0.10221   0.11094   0.11387   0.11720   0.11788
 Alpha virt. eigenvalues --    0.12659   0.13136   0.13282   0.14315   0.14501
 Alpha virt. eigenvalues --    0.14547   0.15614   0.15810   0.16242   0.16529
 Alpha virt. eigenvalues --    0.16823   0.17663   0.17786   0.18315   0.19007
 Alpha virt. eigenvalues --    0.19712   0.20615   0.20820   0.21428   0.21475
 Alpha virt. eigenvalues --    0.22179   0.22348   0.22551   0.23303   0.23352
 Alpha virt. eigenvalues --    0.23619   0.24691   0.24788   0.25302   0.25311
 Alpha virt. eigenvalues --    0.25679   0.26904   0.26938   0.27139   0.27562
 Alpha virt. eigenvalues --    0.27686   0.27850   0.28589   0.28659   0.29140
 Alpha virt. eigenvalues --    0.29224   0.29509   0.30368   0.31147   0.31519
 Alpha virt. eigenvalues --    0.31939   0.32567   0.32798   0.33570   0.33812
 Alpha virt. eigenvalues --    0.34076   0.34996   0.35538   0.35567   0.36186
 Alpha virt. eigenvalues --    0.36693   0.36987   0.37354   0.38145   0.38310
 Alpha virt. eigenvalues --    0.39333   0.40101   0.41255   0.41506   0.42406
 Alpha virt. eigenvalues --    0.42909   0.44482   0.44913   0.45616   0.46450
 Alpha virt. eigenvalues --    0.46773   0.48545   0.49374   0.50792   0.52470
 Alpha virt. eigenvalues --    0.53259   0.54133   0.55831   0.58176   0.66082
 Alpha virt. eigenvalues --    0.69472   0.69719   0.69762   0.69861   0.71064
 Alpha virt. eigenvalues --    0.71853   0.72284   0.73856   0.75950   0.77841
 Alpha virt. eigenvalues --    0.78283   0.78944   0.79064   0.81769   0.83295
 Alpha virt. eigenvalues --    0.84399   0.85048   0.85412   0.86293   0.87080
 Alpha virt. eigenvalues --    0.90448   0.92810   0.95061   0.98065   0.98532
 Alpha virt. eigenvalues --    1.00165   1.00538   1.01642   1.02243   1.02605
 Alpha virt. eigenvalues --    1.06117   1.10897   1.11064   1.11765   1.12154
 Alpha virt. eigenvalues --    1.12749   1.13434   1.13729   1.15563   1.16009
 Alpha virt. eigenvalues --    1.17282   1.17768   1.19659   1.20774   1.21779
 Alpha virt. eigenvalues --    1.23544   1.24998   1.27155   1.29111   1.30045
 Alpha virt. eigenvalues --    1.30474   1.34102   1.34291   1.34657   1.35727
 Alpha virt. eigenvalues --    1.35926   1.37197   1.38686   1.40160   1.42022
 Alpha virt. eigenvalues --    1.43589   1.44508   1.45543   1.46585   1.48316
 Alpha virt. eigenvalues --    1.50744   1.51439   1.54059   1.54698   1.56595
 Alpha virt. eigenvalues --    1.57240   1.58592   1.60765   1.61479   1.63789
 Alpha virt. eigenvalues --    1.67363   1.79336   1.83848   1.88771   2.04553
 Alpha virt. eigenvalues --    2.09575   2.10717   2.11619
          Condensed to atoms (all electrons):
               1          2          3          4          5          6
     1  C    5.852121   0.436900  -0.329316  -0.053205  -0.030274  -0.053203
     2  O    0.436900   8.476163  -0.139767  -0.004502   0.006970  -0.004501
     3  C   -0.329316  -0.139767   6.439568   0.410729   0.345699   0.410727
     4  H   -0.053205  -0.004502   0.410729   0.466295  -0.026046  -0.021683
     5  H   -0.030274   0.006970   0.345699  -0.026046   0.529265  -0.026046
     6  H   -0.053203  -0.004501   0.410727  -0.021683  -0.026046   0.466296
     7  N   -0.112939  -0.216436  -0.258960   0.000976   0.006689   0.000975
     8  C   -0.905189  -0.092148  -0.329108  -0.004145   0.001989  -0.004145
     9  C    0.472786   0.068149   0.170155  -0.000349  -0.001770  -0.000349
    10  O    0.011537  -0.000332  -0.001023   0.000002  -0.000001   0.000002
    11  H    0.024214   0.005949   0.015805   0.000014  -0.000102   0.000014
    12  H    0.006831   0.001416  -0.000404  -0.000004   0.000000   0.000012
    13  H    0.006831   0.001416  -0.000404   0.000012   0.000000  -0.000004
    14  N    0.027807  -0.001858   0.002769  -0.000001   0.000009  -0.000001
    15  C    0.023746   0.000006   0.004686   0.000001  -0.000010   0.000001
    16  C   -0.014617   0.000616  -0.000976   0.000000  -0.000001   0.000000
    17  O    0.000231  -0.000005   0.000006   0.000000   0.000000   0.000000
    18  H   -0.000723   0.000055  -0.000034   0.000000   0.000000   0.000000
    19  H    0.000003   0.000000  -0.000001   0.000000   0.000000   0.000000
    20  H    0.000003   0.000000  -0.000001   0.000000   0.000000   0.000000
    21  N   -0.000087   0.000000  -0.000003   0.000000   0.000000   0.000000
    22  C   -0.000055   0.000001   0.000000   0.000000   0.000000   0.000000
    23  C    0.000011   0.000000   0.000000   0.000000   0.000000   0.000000
    24  O    0.000000   0.000000   0.000000   0.000000   0.000000   0.000000
    25  H    0.000000   0.000000   0.000000   0.000000   0.000000   0.000000
    26  H    0.000000   0.000000   0.000000   0.000000   0.000000   0.000000
    27  H    0.000000   0.000000   0.000000   0.000000   0.000000   0.000000
    28  N    0.000000   0.000000   0.000000   0.000000   0.000000   0.000000
    29  C    0.000000   0.000000   0.000000   0.000000   0.000000   0.000000
    30  H    0.000000   0.000000   0.000000   0.000000   0.000000   0.000000
    31  H    0.000000   0.000000   0.000000   0.000000   0.000000   0.000000
    32  H    0.000000   0.000000   0.000000   0.000000   0.000000   0.000000
    33  H    0.000000   0.000000   0.000000   0.000000   0.000000   0.000000
               7          8          9         10         11         12
     1  C   -0.112939  -0.905189   0.472786   0.011537   0.024214   0.006831
     2  O   -0.216436  -0.092148   0.068149  -0.000332   0.005949   0.001416
     3  C   -0.258960  -0.329108   0.170155  -0.001023   0.015805  -0.000404
     4  H    0.000976  -0.004145  -0.000349   0.000002   0.000014  -0.000004
     5  H    0.006689   0.001989  -0.001770  -0.000001  -0.000102   0.000000
     6  H    0.000975  -0.004145  -0.000349   0.000002   0.000014   0.000012
     7  N    7.731950   0.394006  -0.165401   0.026944   0.256473  -0.048914
     8  C    0.394006  12.088859  -4.507170   0.190020  -0.069397   0.366412
     9  C   -0.165401  -4.507170   9.231855   0.113897   0.025752  -0.035824
    10  O    0.026944   0.190020   0.113897   8.464999   0.005099   0.000962
    11  H    0.256473  -0.069397   0.025752   0.005099   0.312051   0.001790
    12  H   -0.048914   0.366412  -0.035824   0.000962   0.001790   0.486686
    13  H   -0.048914   0.366412  -0.035824   0.000962   0.001790  -0.035446
    14  N    0.009936  -0.628516   0.196655  -0.214353   0.003042   0.013368
    15  C   -0.006700  -0.227951  -1.079112  -0.072433   0.001638   0.001030
    16  C   -0.006154   0.018503   0.541692   0.038338  -0.000156  -0.001281
    17  O    0.000186  -0.010002   0.028424  -0.000355   0.000001   0.000048
    18  H   -0.000223   0.035999  -0.013782   0.005390  -0.000005  -0.000170
    19  H    0.000030  -0.001761   0.006877   0.000551   0.000000  -0.000005
    20  H    0.000030  -0.001761   0.006877   0.000551   0.000000   0.000011
    21  N   -0.000015  -0.001519   0.043527  -0.000508   0.000000   0.000000
    22  C   -0.000090   0.006727   0.010097   0.000334   0.000000   0.000006
    23  C   -0.000006  -0.000862  -0.017516   0.000192   0.000000   0.000000
    24  O    0.000000  -0.000007   0.000226  -0.000002   0.000000   0.000000
    25  H    0.000000   0.000256  -0.000775   0.000020   0.000000   0.000000
    26  H    0.000000   0.000004   0.000015   0.000000   0.000000   0.000000
    27  H    0.000000   0.000004   0.000015   0.000000   0.000000   0.000000
    28  N    0.000000  -0.000001  -0.000101   0.000000   0.000000   0.000000
    29  C    0.000000   0.000000  -0.000039   0.000000   0.000000   0.000000
    30  H    0.000000   0.000000   0.000002   0.000000   0.000000   0.000000
    31  H    0.000000   0.000000   0.000000   0.000000   0.000000   0.000000
    32  H    0.000000   0.000000   0.000000   0.000000   0.000000   0.000000
    33  H    0.000000   0.000000   0.000000   0.000000   0.000000   0.000000
              13         14         15         16         17         18
     1  C    0.006831   0.027807   0.023746  -0.014617   0.000231  -0.000723
     2  O    0.001416  -0.001858   0.000006   0.000616  -0.000005   0.000055
     3  C   -0.000404   0.002769   0.004686  -0.000976   0.000006  -0.000034
     4  H    0.000012  -0.000001   0.000001   0.000000   0.000000   0.000000
     5  H    0.000000   0.000009  -0.000010  -0.000001   0.000000   0.000000
     6  H   -0.000004  -0.000001   0.000001   0.000000   0.000000   0.000000
     7  N   -0.048914   0.009936  -0.006700  -0.006154   0.000186  -0.000223
     8  C    0.366412  -0.628516  -0.227951   0.018503  -0.010002   0.035999
     9  C   -0.035824   0.196655  -1.079112   0.541692   0.028424  -0.013782
    10  O    0.000962  -0.214353  -0.072433   0.038338  -0.000355   0.005390
    11  H    0.001790   0.003042   0.001638  -0.000156   0.000001  -0.000005
    12  H   -0.035446   0.013368   0.001030  -0.001281   0.000048  -0.000170
    13  H    0.486686   0.013368   0.001030  -0.001281   0.000048  -0.000170
    14  N    0.013368   7.700768   0.363434  -0.132141   0.029895   0.268834
    15  C    0.001030   0.363434  11.494475  -3.853397   0.161466  -0.043060
    16  C   -0.001281  -0.132141  -3.853397   8.544387   0.132019  -0.000301
    17  O    0.000048   0.029895   0.161466   0.132019   8.467914   0.009206
    18  H   -0.000170   0.268834  -0.043060  -0.000301   0.009206   0.302640
    19  H    0.000011  -0.044864   0.352157  -0.021952   0.001031   0.001884
    20  H   -0.000005  -0.044864   0.352157  -0.021952   0.001031   0.001884
    21  N    0.000000   0.007446  -0.649565   0.280109  -0.231141   0.003393
    22  C    0.000006  -0.014148  -0.068181  -1.076300  -0.031321   0.001722
    23  C    0.000000  -0.002139  -0.053574   0.605206   0.005844  -0.000324
    24  O    0.000000   0.000139  -0.009090   0.020704  -0.000317   0.000001
    25  H    0.000000   0.000237   0.030506  -0.015753   0.005067  -0.000007
    26  H    0.000000   0.000001  -0.004577  -0.001367   0.000526   0.000000
    27  H    0.000000   0.000001  -0.004577  -0.001367   0.000526   0.000000
    28  N    0.000000  -0.000054  -0.005433   0.023974  -0.000449   0.000000
    29  C    0.000000  -0.000010  -0.000561   0.006109  -0.000065   0.000000
    30  H    0.000000   0.000000   0.000689   0.001862   0.000039   0.000000
    31  H    0.000000   0.000000   0.000009  -0.000068   0.000000   0.000000
    32  H    0.000000   0.000000   0.000003   0.000045   0.000000   0.000000
    33  H    0.000000   0.000000   0.000003   0.000045   0.000000   0.000000
              19         20         21         22         23         24
     1  C    0.000003   0.000003  -0.000087  -0.000055   0.000011   0.000000
     2  O    0.000000   0.000000   0.000000   0.000001   0.000000   0.000000
     3  C   -0.000001  -0.000001  -0.000003   0.000000   0.000000   0.000000
     4  H    0.000000   0.000000   0.000000   0.000000   0.000000   0.000000
     5  H    0.000000   0.000000   0.000000   0.000000   0.000000   0.000000
     6  H    0.000000   0.000000   0.000000   0.000000   0.000000   0.000000
     7  N    0.000030   0.000030  -0.000015  -0.000090  -0.000006   0.000000
     8  C   -0.001761  -0.001761  -0.001519   0.006727  -0.000862  -0.000007
     9  C    0.006877   0.006877   0.043527   0.010097  -0.017516   0.000226
    10  O    0.000551   0.000551  -0.000508   0.000334   0.000192  -0.000002
    11  H    0.000000   0.000000   0.000000   0.000000   0.000000   0.000000
    12  H   -0.000005   0.000011   0.000000   0.000006   0.000000   0.000000
    13  H    0.000011  -0.000005   0.000000   0.000006   0.000000   0.000000
    14  N   -0.044864  -0.044864   0.007446  -0.014148  -0.002139   0.000139
    15  C    0.352157   0.352157  -0.649565  -0.068181  -0.053574  -0.009090
    16  C   -0.021952  -0.021952   0.280109  -1.076300   0.605206   0.020704
    17  O    0.001031   0.001031  -0.231141  -0.031321   0.005844  -0.000317
    18  H    0.001884   0.001884   0.003393   0.001722  -0.000324   0.000001
    19  H    0.483652  -0.034917   0.012108   0.001004  -0.001327   0.000035
    20  H   -0.034917   0.483652   0.012108   0.001004  -0.001327   0.000035
    21  N    0.012108   0.012108   7.698450   0.258764  -0.096544   0.023209
    22  C    0.001004   0.001004   0.258764  11.122734  -3.412263   0.053207
    23  C   -0.001327  -0.001327  -0.096544  -3.412263   7.585849   0.230482
    24  O    0.000035   0.000035   0.023209   0.053207   0.230482   8.472087
    25  H   -0.000181  -0.000181   0.273702  -0.038843   0.003694   0.008484
    26  H   -0.000005   0.000010  -0.045365   0.328664   0.007556   0.000762
    27  H    0.000010  -0.000005  -0.045365   0.328664   0.007557   0.000762
    28  N    0.000000   0.000000   0.008253  -0.741572   0.507251  -0.219332
    29  C    0.000000   0.000000   0.001895  -0.182484   0.000624  -0.027978
    30  H    0.000000   0.000000   0.000824   0.054453  -0.047991   0.008477
    31  H    0.000000   0.000000  -0.000043  -0.008445  -0.010547   0.005314
    32  H    0.000000   0.000000  -0.000027   0.005193  -0.002654   0.000117
    33  H    0.000000   0.000000  -0.000027   0.005193  -0.002654   0.000117
              25         26         27         28         29         30
     1  C    0.000000   0.000000   0.000000   0.000000   0.000000   0.000000
     2  O    0.000000   0.000000   0.000000   0.000000   0.000000   0.000000
     3  C    0.000000   0.000000   0.000000   0.000000   0.000000   0.000000
     4  H    0.000000   0.000000   0.000000   0.000000   0.000000   0.000000
     5  H    0.000000   0.000000   0.000000   0.000000   0.000000   0.000000
     6  H    0.000000   0.000000   0.000000   0.000000   0.000000   0.000000
     7  N    0.000000   0.000000   0.000000   0.000000   0.000000   0.000000
     8  C    0.000256   0.000004   0.000004  -0.000001   0.000000   0.000000
     9  C   -0.000775   0.000015   0.000015  -0.000101  -0.000039   0.000002
    10  O    0.000020   0.000000   0.000000   0.000000   0.000000   0.000000
    11  H    0.000000   0.000000   0.000000   0.000000   0.000000   0.000000
    12  H    0.000000   0.000000   0.000000   0.000000   0.000000   0.000000
    13  H    0.000000   0.000000   0.000000   0.000000   0.000000   0.000000
    14  N    0.000237   0.000001   0.000001  -0.000054  -0.000010   0.000000
    15  C    0.030506  -0.004577  -0.004577  -0.005433  -0.000561   0.000689
    16  C   -0.015753  -0.001367  -0.001367   0.023974   0.006109   0.001862
    17  O    0.005067   0.000526   0.000526  -0.000449  -0.000065   0.000039
    18  H   -0.000007   0.000000   0.000000   0.000000   0.000000   0.000000
    19  H   -0.000181  -0.000005   0.000010   0.000000   0.000000   0.000000
    20  H   -0.000181   0.000010  -0.000005   0.000000   0.000000   0.000000
    21  N    0.273702  -0.045365  -0.045365   0.008253   0.001895   0.000824
    22  C   -0.038843   0.328664   0.328664  -0.741572  -0.182484   0.054453
    23  C    0.003694   0.007556   0.007557   0.507251   0.000624  -0.047991
    24  O    0.008484   0.000762   0.000762  -0.219332  -0.027978   0.008477
    25  H    0.302079   0.001936   0.001936   0.002871   0.000627  -0.000008
    26  H    0.001936   0.489271  -0.036283   0.014795   0.002476  -0.000531
    27  H    0.001936  -0.036283   0.489271   0.014795   0.002476  -0.000531
    28  N    0.002871   0.014795   0.014795   7.629055   0.184139   0.266290
    29  C    0.000627   0.002476   0.002476   0.184139   5.266328  -0.025872
    30  H   -0.000008  -0.000531  -0.000531   0.266290  -0.025872   0.383050
    31  H    0.000000  -0.000003  -0.000003  -0.039986   0.409547   0.002381
    32  H    0.000000  -0.000002   0.000008  -0.041582   0.384111  -0.001024
    33  H    0.000000   0.000008  -0.000002  -0.041582   0.384111  -0.001024
              31         32         33
     1  C    0.000000   0.000000   0.000000
     2  O    0.000000   0.000000   0.000000
     3  C    0.000000   0.000000   0.000000
     4  H    0.000000   0.000000   0.000000
     5  H    0.000000   0.000000   0.000000
     6  H    0.000000   0.000000   0.000000
     7  N    0.000000   0.000000   0.000000
     8  C    0.000000   0.000000   0.000000
     9  C    0.000000   0.000000   0.000000
    10  O    0.000000   0.000000   0.000000
    11  H    0.000000   0.000000   0.000000
    12  H    0.000000   0.000000   0.000000
    13  H    0.000000   0.000000   0.000000
    14  N    0.000000   0.000000   0.000000
    15  C    0.000009   0.000003   0.000003
    16  C   -0.000068   0.000045   0.000045
    17  O    0.000000   0.000000   0.000000
    18  H    0.000000   0.000000   0.000000
    19  H    0.000000   0.000000   0.000000
    20  H    0.000000   0.000000   0.000000
    21  N   -0.000043  -0.000027  -0.000027
    22  C   -0.008445   0.005193   0.005193
    23  C   -0.010547  -0.002654  -0.002654
    24  O    0.005314   0.000117   0.000117
    25  H    0.000000   0.000000   0.000000
    26  H   -0.000003  -0.000002   0.000008
    27  H   -0.000003   0.000008  -0.000002
    28  N   -0.039986  -0.041582  -0.041582
    29  C    0.409547   0.384111   0.384111
    30  H    0.002381  -0.001024  -0.001024
    31  H    0.443597  -0.022655  -0.022655
    32  H   -0.022655   0.499908  -0.033544
    33  H   -0.022655  -0.033544   0.499908
 Mulliken charges:
               1
     1  C    0.636587
     2  O   -0.538092
     3  C   -0.740149
     4  H    0.231906
     5  H    0.193631
     6  H    0.231905
     7  N   -0.563442
     8  C   -0.685511
     9  C    0.941010
    10  O   -0.570795
    11  H    0.416023
    12  H    0.243475
    13  H    0.243475
    14  N   -0.554762
    15  C   -0.708818
    16  C    0.935454
    17  O   -0.569847
    18  H    0.427791
    19  H    0.245662
    20  H    0.245662
    21  N   -0.553578
    22  C   -0.604073
    23  C    0.695462
    24  O   -0.567431
    25  H    0.424334
    26  H    0.242107
    27  H    0.242107
    28  N   -0.561331
    29  C   -0.405437
    30  H    0.358912
    31  H    0.243557
    32  H    0.212103
    33  H    0.212103
 Sum of Mulliken charges =   0.00000
 Mulliken charges with hydrogens summed into heavy atoms:
               1
     1  C    0.636587
     2  O   -0.538092
     3  C   -0.082706
     7  N   -0.147418
     8  C   -0.198561
     9  C    0.941010
    10  O   -0.570795
    14  N   -0.126971
    15  C   -0.217494
    16  C    0.935454
    17  O   -0.569847
    21  N   -0.129244
    22  C   -0.119859
    23  C    0.695462
    24  O   -0.567431
    28  N   -0.202419
    29  C    0.262327
 Electronic spatial extent (au):  <R**2>=          12248.7894
 Charge=              0.0000 electrons
 Dipole moment (field-independent basis, Debye):
    X=             -6.4749    Y=             -0.4971    Z=              0.0000  Tot=              6.4939
 Quadrupole moment (field-independent basis, Debye-Ang):
   XX=            -57.6835   YY=           -118.4138   ZZ=           -102.3384
   XY=             33.8484   XZ=              0.0000   YZ=              0.0000
 Traceless Quadrupole moment (field-independent basis, Debye-Ang):
   XX=             35.1284   YY=            -25.6019   ZZ=             -9.5265
   XY=             33.8484   XZ=              0.0000   YZ=              0.0000
 Octapole moment (field-independent basis, Debye-Ang**2):
  XXX=           -390.1482  YYY=             -1.1629  ZZZ=              0.0001  XYY=            -37.2316
  XXY=             -2.3317  XXZ=              0.0000  XZZ=              1.1508  YZZ=             -2.2549
  YYZ=             -0.0001  XYZ=              0.0001
 Hexadecapole moment (field-independent basis, Debye-Ang**3):
 XXXX=         -10595.5441 YYYY=           -655.8002 ZZZZ=           -133.3671 XXXY=           1765.5010
 XXXZ=             -0.0002 YYYX=            106.2550 YYYZ=             -0.0001 ZZZX=              0.0004
 ZZZY=              0.0000 XXYY=          -2963.7919 XXZZ=          -2576.9817 YYZZ=           -119.5044
 XXYZ=              0.0008 YYXZ=             -0.0004 ZZXY=             -8.3768
 N-N= 1.065731472121D+03 E-N=-4.166479575022D+03  KE= 8.648719807304D+02
 No NMR shielding tensors so no spin-rotation constants.
 Leave Link  601 at Fri Feb 17 11:48:21 2023, MaxMem=    33554432 cpu:         1.4
 (Enter /hits/basement/its/doserbd/software/gaussian/g09d1/g09/l701.exe)
 Compute integral first derivatives.
 ... and contract with generalized density number  0.
 Leave Link  701 at Fri Feb 17 11:48:21 2023, MaxMem=    33554432 cpu:         1.3
 (Enter /hits/basement/its/doserbd/software/gaussian/g09d1/g09/l702.exe)
 L702 exits ... SP integral derivatives will be done elsewhere.
 Leave Link  702 at Fri Feb 17 11:48:21 2023, MaxMem=    33554432 cpu:         0.1
 (Enter /hits/basement/its/doserbd/software/gaussian/g09d1/g09/l703.exe)
 Compute integral first derivatives, UseDBF=F ICtDFT=           0.
 Integral derivatives from FoFJK, PRISM(SPDF).
 Calling FoFJK, ICntrl=      2127 FMM=F ISym2X=0 I1Cent= 0 IOpClX= 0 NMat=1 NMatS=1 NMatT=0.
 FoFJK:  IHMeth= 1 ICntrl=    2127 DoSepK=F KAlg= 0 I1Cent=   0 FoldK=F
 IRaf=         0 NMat=   1 IRICut=       1 DoRegI=T DoRafI=F ISym2E= 0.
 FoFCou: FMM=F IPFlag=           0 FMFlag=      100000 FMFlg1=         800
         NFxFlg=           0 DoJE=F BraDBF=F KetDBF=F FulRan=T
         wScrn=  0.000000 ICntrl=    2127 IOpCl=  0 I1Cent=           0 NGrid=           0
         NMat0=    1 NMatS0=      1 NMatT0=    0 NMatD0=    1 NMtDS0=    0 NMtDT0=    0
 Symmetry not used in FoFCou.
 Leave Link  703 at Fri Feb 17 11:48:25 2023, MaxMem=    33554432 cpu:        32.0
 (Enter /hits/basement/its/doserbd/software/gaussian/g09d1/g09/l716.exe)
 Dipole        =-2.54740468D+00-1.95558804D-01-1.15846296D-06
 ***** Axes restored to original set *****
 -------------------------------------------------------------------
 Center     Atomic                   Forces (Hartrees/Bohr)
 Number     Number              X              Y              Z
 -------------------------------------------------------------------
      1        6           0.000122498   -0.000000073   -0.000063168
      2        8           0.000009261    0.000000040   -0.000010821
      3        6          -0.063402185   -0.000000053    0.003873373
      4        1          -0.000016437    0.000020631   -0.000011510
      5        1          -0.000005278    0.000000031   -0.000007889
      6        1          -0.000016425   -0.000020593   -0.000011474
      7        7           0.000002622    0.000000037    0.000002147
      8        6          -0.000000751   -0.000000008   -0.000009236
      9        6           0.000002758    0.000000024    0.000003751
     10        8           0.000000043   -0.000000008   -0.000000052
     11        1          -0.000001424    0.000000007   -0.000002397
     12        1           0.000000363   -0.000000117   -0.000000800
     13        1           0.000000379    0.000000130   -0.000000804
     14        7          -0.000000154   -0.000000004   -0.000000079
     15        6          -0.000001159    0.000000034    0.000010047
     16        6           0.000004385   -0.000000031   -0.000003398
     17        8           0.000003040    0.000000004    0.000000338
     18        1          -0.000003816    0.000000002   -0.000004184
     19        1          -0.000000214   -0.000000053   -0.000000002
     20        1          -0.000000185    0.000000047   -0.000000019
     21        7          -0.000005839    0.000000006    0.000003860
     22        6          -0.000003978   -0.000000044   -0.000008442
     23        6           0.000016871    0.000000033    0.000002170
     24        8          -0.000004744   -0.000000004    0.000005292
     25        1           0.000005820   -0.000000001    0.000001714
     26        1           0.000000037    0.000000096    0.000001419
     27        1           0.000000067   -0.000000084    0.000001432
     28        7          -0.000025987   -0.000000006   -0.000011248
     29        6           0.063311029    0.000000037   -0.003749129
     30        1          -0.000001375    0.000000002    0.000001052
     31        1           0.000000893   -0.000000075   -0.000003056
     32        1           0.000004941    0.000011703   -0.000004486
     33        1           0.000004945   -0.000011709   -0.000004401
 -------------------------------------------------------------------
 Cartesian Forces:  Max     0.063402185 RMS     0.009021414
 -----------------------------------------------------------------------------------------------
                       Internal Coordinate Forces (Hartree/Bohr or radian)
  Cent   Atom   N1       Length/X         N2         Alpha/Y        N3         Beta/Z          J
 -----------------------------------------------------------------------------------------------
      1  C 
      2  O        1  -0.000011(     1)
      3  C        1  -0.059902(     2)      2   0.067900(    33)
      4  H        3  -0.000028(     3)      1  -0.000008(    34)      2   0.000000(    64)     0
      5  H        3   0.000008(     4)      1  -0.000011(    35)      4   0.000000(    65)     0
      6  H        3  -0.000028(     5)      1  -0.000008(    36)      4  -0.000007(    66)     0
      7  N        1  -0.054419(     6)      2   0.067426(    37)      3   0.000000(    67)     0
      8  C        7  -0.056388(     7)      1  -0.020384(    38)      2   0.000000(    68)     0
      9  C        8  -0.052615(     8)      7  -0.064271(    39)      1   0.000000(    69)     0
     10  O        9   0.000000(     9)      8   0.000000(    40)      7   0.000000(    70)     0
     11  H        7   0.000002(    10)      1   0.000002(    41)      8   0.000000(    71)     0
     12  H        8  -0.000001(    11)      7  -0.000001(    42)      9   0.000001(    72)     0
     13  H        8  -0.000001(    12)      7  -0.000001(    43)      9  -0.000001(    73)     0
     14  N        9  -0.057158(    13)      8  -0.044792(    44)     10   0.000000(    74)     0
     15  C       14  -0.055151(    14)      9  -0.029068(    45)      8   0.000000(    75)     0
     16  C       15  -0.052960(    15)     14  -0.062002(    46)      9   0.000000(    76)     0
     17  O       16   0.000001(    16)     15  -0.000007(    47)     14   0.000000(    77)     0
     18  H       14  -0.000004(    17)      9   0.000008(    48)     15   0.000000(    78)     0
     19  H       15   0.000000(    18)     14   0.000000(    49)     16   0.000000(    79)     0
     20  H       15   0.000000(    19)     14   0.000000(    50)     16   0.000000(    80)     0
     21  N       16  -0.057240(    20)     15  -0.045734(    51)     17   0.000000(    81)     0
     22  C       21  -0.054774(    21)     16  -0.027527(    52)     15   0.000000(    82)     0
     23  C       22  -0.054247(    22)     21  -0.065477(    53)     16   0.000000(    83)     0
     24  O       23  -0.000005(    23)     22   0.000011(    54)     21   0.000000(    84)     0
     25  H       21  -0.000003(    24)     16  -0.000011(    55)     22   0.000000(    85)     0
     26  H       22   0.000001(    25)     21   0.000001(    56)     23  -0.000002(    86)     0
     27  H       22   0.000001(    26)     21   0.000001(    57)     23   0.000002(    87)     0
     28  N       23  -0.054429(    27)     22  -0.036703(    58)     24   0.000000(    88)     0
     29  C       28  -0.061224(    28)     23  -0.050436(    59)     22   0.000000(    89)     0
     30  H       28   0.000001(    29)     23   0.000003(    60)     29   0.000000(    90)     0
     31  H       29   0.000003(    30)     28  -0.000002(    61)     23   0.000000(    91)     0
     32  H       29  -0.000013(    31)     28   0.000000(    62)     31   0.000002(    92)     0
     33  H       29  -0.000013(    32)     28   0.000000(    63)     31  -0.000002(    93)     0
 -----------------------------------------------------------------------------------------------
 Internal  Forces:  Max     0.067900227 RMS     0.027232062
 Leave Link  716 at Fri Feb 17 11:48:25 2023, MaxMem=    33554432 cpu:         0.4
 (Enter /hits/basement/its/doserbd/software/gaussian/g09d1/g09/l103.exe)

 GradGradGradGradGradGradGradGradGradGradGradGradGradGradGradGradGradGrad
 Berny optimization.
 Search for a local minimum.
 Step number   1 out of a maximum of    2
 All quantities printed in internal units (Hartrees-Bohrs-Radians)
 Second derivative matrix not updated -- first step.
 ITU=  0
     Eigenvalues ---    0.01014   0.01128   0.01133   0.01193   0.01218
     Eigenvalues ---    0.01231   0.01247   0.01559   0.02414   0.02873
     Eigenvalues ---    0.02923   0.03347   0.04906   0.05153   0.05553
     Eigenvalues ---    0.05879   0.06760   0.06826   0.06984   0.08748
     Eigenvalues ---    0.08820   0.11365   0.11525   0.11902   0.13773
     Eigenvalues ---    0.14022   0.14469   0.17700   0.17863   0.17917
     Eigenvalues ---    0.18419   0.19879   0.19879   0.19879   0.19883
     Eigenvalues ---    0.20858   0.21599   0.21826   0.21963   0.22757
     Eigenvalues ---    0.23231   0.25000   0.25000   0.25001   0.25005
     Eigenvalues ---    0.25462   0.25779   0.25879   0.28219   0.28515
     Eigenvalues ---    0.28599   0.30058   0.30743   0.33856   0.33856
     Eigenvalues ---    0.33857   0.33857   0.33870   0.33870   0.34332
     Eigenvalues ---    0.34504   0.34504   0.34538   0.34575   0.34575
     Eigenvalues ---    0.35361   0.35466   0.35523   0.40357   0.40818
     Eigenvalues ---    0.41459   0.42009   0.42435   0.42793   0.42989
     Eigenvalues ---    0.43132   0.43348   0.45214   0.45216   0.45370
     Eigenvalues ---    0.45541   0.53121   0.53121   0.53121   0.53127
     Eigenvalues ---    0.75000   0.75000   0.75001   0.75005   0.85797
     Eigenvalues ---    0.87041   0.87224   0.88648
 Quadratic step=9.140D-01 exceeds max=3.000D-01 adjusted using Lamda=-5.324D-01.
 Angle between NR and scaled steps=  13.57 degrees.
 Angle between quadratic step and forces=  10.49 degrees.
 Linear search not attempted -- first point.
 Variable       Old X    -DE/DX   Delta X   Delta X   Delta X     New X
                                 (Linear)    (Quad)   (Total)
    R2        2.34933  -0.00001   0.00000  -0.00001  -0.00001   2.34932
    R3        3.19650  -0.05990   0.00000  -0.08359  -0.08359   3.11291
    R4        2.06488  -0.00003   0.00000  -0.00003  -0.00003   2.06485
    R5        2.06773   0.00001   0.00000   0.00001   0.00001   2.06774
    R6        2.06488  -0.00003   0.00000  -0.00003  -0.00003   2.06485
    R7        2.69617  -0.05442   0.00000  -0.05746  -0.05746   2.63871
    R8        2.91663  -0.05639   0.00000  -0.06922  -0.06922   2.84741
    R9        3.08038  -0.05262   0.00000  -0.07009  -0.07009   3.01029
   R10        2.34239   0.00000   0.00000   0.00000   0.00000   2.34239
   R11        1.91352   0.00000   0.00000   0.00000   0.00000   1.91352
   R12        2.07572   0.00000   0.00000   0.00000   0.00000   2.07572
   R13        2.07572   0.00000   0.00000   0.00000   0.00000   2.07572
   R14        2.68911  -0.05716   0.00000  -0.06001  -0.06001   2.62910
   R15        2.90847  -0.05515   0.00000  -0.06739  -0.06739   2.84108
   R16        3.08735  -0.05296   0.00000  -0.07076  -0.07076   3.01658
   R17        2.34328   0.00000   0.00000   0.00000   0.00000   2.34328
   R18        1.91728   0.00000   0.00000   0.00000   0.00000   1.91728
   R19        2.07551   0.00000   0.00000   0.00000   0.00000   2.07551
   R20        2.07551   0.00000   0.00000   0.00000   0.00000   2.07551
   R21        2.68373  -0.05724   0.00000  -0.05983  -0.05983   2.62390
   R22        2.91026  -0.05477   0.00000  -0.06700  -0.06700   2.84327
   R23        3.11078  -0.05425   0.00000  -0.07321  -0.07321   3.03757
   R24        2.33562  -0.00001   0.00000   0.00000   0.00000   2.33562
   R25        1.91725   0.00000   0.00000   0.00000   0.00000   1.91725
   R26        2.07574   0.00000   0.00000   0.00000   0.00000   2.07574
   R27        2.07574   0.00000   0.00000   0.00000   0.00000   2.07574
   R28        2.67926  -0.05443   0.00000  -0.05668  -0.05668   2.62258
   R29        3.03931  -0.06122   0.00000  -0.08006  -0.08006   2.95925
   R30        1.91549   0.00000   0.00000   0.00000   0.00000   1.91549
   R31        2.06431   0.00000   0.00000   0.00000   0.00000   2.06431
   R32        2.06371  -0.00001   0.00000  -0.00002  -0.00002   2.06370
   R33        2.06371  -0.00001   0.00000  -0.00002  -0.00002   2.06370
    A3        1.97204   0.06790   0.00000   0.05307   0.05307   2.02511
    A4        1.81958  -0.00001   0.00000  -0.00001  -0.00001   1.81957
    A5        1.98361  -0.00001   0.00000  -0.00002  -0.00002   1.98358
    A6        1.81958  -0.00001   0.00000  -0.00001  -0.00001   1.81957
    A7        2.05065   0.06743   0.00000   0.05245   0.05245   2.10311
    A8        2.12692  -0.02038   0.00000  -0.02235  -0.02235   2.10458
    A9        2.07374  -0.06427   0.00000  -0.07480  -0.07480   1.99895
   A10        2.07563   0.00000   0.00000   0.01116   0.01116   2.08680
   A11        2.12348   0.00000   0.00000   0.00420   0.00420   2.12767
   A12        1.87386   0.00000   0.00000   0.00545   0.00545   1.87930
   A13        1.87386   0.00000   0.00000   0.00545   0.00545   1.87930
   A14        2.10122  -0.04479   0.00000  -0.04609  -0.04609   2.05513
   A15        2.17715  -0.02907   0.00000  -0.03186  -0.03186   2.14530
   A16        2.04248  -0.06200   0.00000  -0.07232  -0.07232   1.97016
   A17        2.06120  -0.00001   0.00000   0.01139   0.01139   2.07259
   A18        2.10276   0.00001   0.00000   0.00599   0.00599   2.10875
   A19        1.88342   0.00000   0.00000   0.00506   0.00506   1.88849
   A20        1.88342   0.00000   0.00000   0.00506   0.00506   1.88849
   A21        2.11402  -0.04573   0.00000  -0.04705  -0.04705   2.06697
   A22        2.16840  -0.02753   0.00000  -0.03017  -0.03017   2.13823
   A23        2.06883  -0.06548   0.00000  -0.07630  -0.07630   1.99253
   A24        2.07358   0.00001   0.00000   0.00916   0.00916   2.08274
   A25        2.10529  -0.00001   0.00000   0.00565   0.00565   2.11094
   A26        1.87550   0.00000   0.00000   0.00548   0.00548   1.88098
   A27        1.87550   0.00000   0.00000   0.00548   0.00548   1.88098
   A28        2.05834  -0.03670   0.00000  -0.03777  -0.03777   2.02057
   A29        2.33811  -0.05044   0.00000  -0.05528  -0.05528   2.28283
   A30        2.00405   0.00000   0.00000   0.01038   0.01038   2.01443
   A31        1.86676   0.00000   0.00000  -0.00001  -0.00001   1.86675
   A32        1.86680   0.00000   0.00000   0.00001   0.00001   1.86682
   A33        1.86680   0.00000   0.00000   0.00001   0.00001   1.86682
    D4        1.01578   0.00000   0.00000   0.00000   0.00000   1.01578
    D5        2.12580   0.00000   0.00000   0.00000   0.00000   2.12580
    D6       -2.03158  -0.00001   0.00000  -0.00002  -0.00002  -2.03160
    D7        3.14159   0.00000   0.00000   0.00000   0.00000   3.14159
    D8        0.00000   0.00000   0.00000   0.00000   0.00000   0.00000
    D9        3.14159   0.00000   0.00000   0.00000   0.00000   3.14159
   D10        0.00000   0.00000   0.00000   0.00000   0.00000   0.00000
   D11        3.14159   0.00000   0.00000   0.00000   0.00000   3.14159
   D12       -2.13990   0.00000   0.00000   0.00557   0.00557  -2.13434
   D13        2.13990   0.00000   0.00000  -0.00557  -0.00557   2.13433
   D14        3.14159   0.00000   0.00000   0.00000   0.00000   3.14159
   D15        3.14159   0.00000   0.00000   0.00000   0.00000   3.14159
   D16        3.14159   0.00000   0.00000   0.00000   0.00000   3.14159
   D17        0.00000   0.00000   0.00000   0.00000   0.00000   0.00000
   D18        3.14159   0.00000   0.00000   0.00000   0.00000   3.14159
   D19       -2.12944   0.00000   0.00000   0.00548   0.00548  -2.12396
   D20        2.12944   0.00000   0.00000  -0.00548  -0.00548   2.12396
   D21        3.14159   0.00000   0.00000   0.00000   0.00000   3.14159
   D22        3.14159   0.00000   0.00000   0.00000   0.00000   3.14159
   D23        3.14159   0.00000   0.00000   0.00000   0.00000   3.14159
   D24        0.00000   0.00000   0.00000   0.00000   0.00000   0.00000
   D25        3.14159   0.00000   0.00000   0.00000   0.00000   3.14159
   D26       -2.13265   0.00000   0.00000   0.00569   0.00569  -2.12696
   D27        2.13264   0.00000   0.00000  -0.00569  -0.00569   2.12696
   D28        3.14159   0.00000   0.00000   0.00000   0.00000   3.14159
   D29        3.14159   0.00000   0.00000   0.00000   0.00000   3.14159
   D30        3.14159   0.00000   0.00000   0.00000   0.00000   3.14159
   D31        0.00000   0.00000   0.00000   0.00000   0.00000   0.00000
   D32        2.08622   0.00000   0.00000  -0.00002  -0.00002   2.08620
   D33       -2.08622   0.00000   0.00000   0.00002   0.00002  -2.08619
         Item               Value     Threshold  Converged?
 Maximum Force            0.067900     0.000450     NO 
 RMS     Force            0.027232     0.000300     NO 
 Maximum Displacement     0.083592     0.001800     NO 
 RMS     Displacement     0.031202     0.001200     NO 
 Predicted change in Energy=-6.295369D-02
 GradGradGradGradGradGradGradGradGradGradGradGradGradGradGradGradGradGrad

 Leave Link  103 at Fri Feb 17 11:48:25 2023, MaxMem=    33554432 cpu:         0.4
 (Enter /hits/basement/its/doserbd/software/gaussian/g09d1/g09/l9999.exe)
 1\1\GINC-HASWELL-110\Force\RBMK\6-31+G\C9H16N4O4\SUCERQDL\17-Feb-2023\
 1\\#P bmk/6-31+g force\\Gaussian input prepared by ASE\\0,1\C\O,1,R2\C
 ,1,R3,2,A3\H,3,R4,1,A4,2,D4,0\H,3,R5,1,A5,4,D5,0\H,3,R6,1,A6,4,D6,0\N,
 1,R7,2,A7,3,D7,0\C,7,R8,1,A8,2,D8,0\C,8,R9,7,A9,1,D9,0\O,9,R10,8,A10,7
 ,D10,0\H,7,R11,1,A11,8,D11,0\H,8,R12,7,A12,9,D12,0\H,8,R13,7,A13,9,D13
 ,0\N,9,R14,8,A14,10,D14,0\C,14,R15,9,A15,8,D15,0\C,15,R16,14,A16,9,D16
 ,0\O,16,R17,15,A17,14,D17,0\H,14,R18,9,A18,15,D18,0\H,15,R19,14,A19,16
 ,D19,0\H,15,R20,14,A20,16,D20,0\N,16,R21,15,A21,17,D21,0\C,21,R22,16,A
 22,15,D22,0\C,22,R23,21,A23,16,D23,0\O,23,R24,22,A24,21,D24,0\H,21,R25
 ,16,A25,22,D25,0\H,22,R26,21,A26,23,D26,0\H,22,R27,21,A27,23,D27,0\N,2
 3,R28,22,A28,24,D28,0\C,28,R29,23,A29,22,D29,0\H,28,R30,23,A30,29,D30,
 0\H,29,R31,28,A31,23,D31,0\H,29,R32,28,A32,31,D32,0\H,29,R33,28,A33,31
 ,D33,0\\R2=1.24321022\R3=1.69151471\R4=1.09268798\R5=1.09419733\R6=1.0
 9268806\R7=1.42675373\R8=1.54341524\R9=1.63006697\R10=1.23954005\R11=1
 .01259206\R12=1.09842611\R13=1.09842615\R14=1.42301628\R15=1.5390949\R
 16=1.63375465\R17=1.24000779\R18=1.01458313\R19=1.0983107\R20=1.098310
 71\R21=1.42016714\R22=1.54004487\R23=1.64615553\R24=1.23595937\R25=1.0
 1456702\R26=1.09843409\R27=1.09843411\R28=1.41780448\R29=1.60833621\R3
 0=1.01363123\R31=1.09238488\R32=1.09206944\R33=1.09206944\A3=112.98959
 993\A4=104.25420283\A5=113.6522852\A6=104.25436705\A7=117.49363356\A8=
 121.86370482\A9=118.81681036\A10=118.92509694\A11=121.66618656\A12=107
 .36415043\A13=107.36416077\A14=120.39104087\A15=124.74174495\A16=117.0
 2564045\A17=118.09808817\A18=120.47908965\A19=107.9121497\A20=107.9121
 5273\A21=121.12441003\A22=124.24012638\A23=118.5354637\A24=118.8075407
 9\A25=120.62408154\A26=107.4579563\A27=107.45795715\A28=117.93394474\A
 29=133.96382255\A30=114.8236122\A31=106.95749972\A32=106.95994926\A33=
 106.95994852\D4=58.19962738\D5=121.7993914\D6=-116.40117708\D7=180.\D8
 =0.\D9=179.99990645\D10=0.\D11=180.\D12=-122.60734758\D13=122.60732868
 \D14=180.\D15=180.\D16=180.\D17=0.\D18=180.\D19=-122.00808726\D20=122.
 00804994\D21=180.\D22=180.\D23=180.\D24=0.\D25=180.\D26=-122.19157226\
 D27=122.19152908\D28=180.\D29=180.\D30=180.\D31=0.\D32=119.53141511\D3
 3=-119.53132726\\Version=ES64L-G09RevD.01\State=1-A\HF=-871.7465667\RM
 SD=9.641e-09\RMSF=9.021e-03\Dipole=-2.5410331,0.0000003,0.2658279\Quad
 rupole=24.693371,-7.0827142,-17.6106568,-0.0000038,-26.3734064,0.00002
 47\PG=C01 [X(C9H16N4O4)]\\@


 THERE'S SMALL CHOICE IN A BOWL OF ROTTEN APPLES.
                     SHAKESPEARE
 Job cpu time:       0 days  0 hours  5 minutes 27.7 seconds.
 File lengths (MBytes):  RWF=     71 Int=      0 D2E=      0 Chk=      5 Scr=      1
 Normal termination of Gaussian 09 at Fri Feb 17 11:48:25 2023.
