 Entering Gaussian System, Link 0=g09
 Input=GPA-stretched00.com
 Output=GPA-stretched00.log
 Initial command:
 /hits/basement/its/doserbd/software/gaussian/g09d1/g09/l1.exe "/hits/basement/mbm/sucerquia/gaussian_scratch/Gau-2391.inp" -scrdir="/hits/basement/mbm/sucerquia/gaussian_scratch/"
 Entering Link 1 = /hits/basement/its/doserbd/software/gaussian/g09d1/g09/l1.exe PID=      2392.
  
 Copyright (c) 1988,1990,1992,1993,1995,1998,2003,2009,2013,
            Gaussian, Inc.  All Rights Reserved.
  
 This is part of the Gaussian(R) 09 program.  It is based on
 the Gaussian(R) 03 system (copyright 2003, Gaussian, Inc.),
 the Gaussian(R) 98 system (copyright 1998, Gaussian, Inc.),
 the Gaussian(R) 94 system (copyright 1995, Gaussian, Inc.),
 the Gaussian 92(TM) system (copyright 1992, Gaussian, Inc.),
 the Gaussian 90(TM) system (copyright 1990, Gaussian, Inc.),
 the Gaussian 88(TM) system (copyright 1988, Gaussian, Inc.),
 the Gaussian 86(TM) system (copyright 1986, Carnegie Mellon
 University), and the Gaussian 82(TM) system (copyright 1983,
 Carnegie Mellon University). Gaussian is a federally registered
 trademark of Gaussian, Inc.
  
 This software contains proprietary and confidential information,
 including trade secrets, belonging to Gaussian, Inc.
  
 This software is provided under written license and may be
 used, copied, transmitted, or stored only in accord with that
 written license.
  
 The following legend is applicable only to US Government
 contracts under FAR:
  
                    RESTRICTED RIGHTS LEGEND
  
 Use, reproduction and disclosure by the US Government is
 subject to restrictions as set forth in subparagraphs (a)
 and (c) of the Commercial Computer Software - Restricted
 Rights clause in FAR 52.227-19.
  
 Gaussian, Inc.
 340 Quinnipiac St., Bldg. 40, Wallingford CT 06492
  
  
 ---------------------------------------------------------------
 Warning -- This program may not be used in any manner that
 competes with the business of Gaussian, Inc. or will provide
 assistance to any competitor of Gaussian, Inc.  The licensee
 of this program is prohibited from giving any competitor of
 Gaussian, Inc. access to this program.  By using this program,
 the user acknowledges that Gaussian, Inc. is engaged in the
 business of creating and licensing software in the field of
 computational chemistry and represents and warrants to the
 licensee that it is not a competitor of Gaussian, Inc. and that
 it will not use this program in any manner prohibited above.
 ---------------------------------------------------------------
  

 Cite this work as:
 Gaussian 09, Revision D.01,
 M. J. Frisch, G. W. Trucks, H. B. Schlegel, G. E. Scuseria, 
 M. A. Robb, J. R. Cheeseman, G. Scalmani, V. Barone, B. Mennucci, 
 G. A. Petersson, H. Nakatsuji, M. Caricato, X. Li, H. P. Hratchian, 
 A. F. Izmaylov, J. Bloino, G. Zheng, J. L. Sonnenberg, M. Hada, 
 M. Ehara, K. Toyota, R. Fukuda, J. Hasegawa, M. Ishida, T. Nakajima, 
 Y. Honda, O. Kitao, H. Nakai, T. Vreven, J. A. Montgomery, Jr., 
 J. E. Peralta, F. Ogliaro, M. Bearpark, J. J. Heyd, E. Brothers, 
 K. N. Kudin, V. N. Staroverov, T. Keith, R. Kobayashi, J. Normand, 
 K. Raghavachari, A. Rendell, J. C. Burant, S. S. Iyengar, J. Tomasi, 
 M. Cossi, N. Rega, J. M. Millam, M. Klene, J. E. Knox, J. B. Cross, 
 V. Bakken, C. Adamo, J. Jaramillo, R. Gomperts, R. E. Stratmann, 
 O. Yazyev, A. J. Austin, R. Cammi, C. Pomelli, J. W. Ochterski, 
 R. L. Martin, K. Morokuma, V. G. Zakrzewski, G. A. Voth, 
 P. Salvador, J. J. Dannenberg, S. Dapprich, A. D. Daniels, 
 O. Farkas, J. B. Foresman, J. V. Ortiz, J. Cioslowski, 
 and D. J. Fox, Gaussian, Inc., Wallingford CT, 2013.
 
 ******************************************
 Gaussian 09:  ES64L-G09RevD.01 24-Apr-2013
                 4-Apr-2023 
 ******************************************
 %chk=GPA-stretched00
 %NProcShared=8
 Will use up to    8 processors via shared memory.
 ----------------------------------
 #P bmk/6-31+g opt(modredun,calcfc)
 ----------------------------------
 1/10=4,14=-1,18=120,19=15,26=3,38=1/1,3;
 2/9=110,12=2,17=6,18=5,40=1/2;
 3/5=1,6=6,7=10,11=2,16=1,25=1,30=1,71=2,74=-34,140=1/1,2,3;
 4//1;
 5/5=2,38=5/2;
 8/6=4,10=90,11=11/1;
 11/6=1,8=1,9=11,15=111,16=1/1,2,10;
 10/6=1,13=1/2;
 6/7=2,8=2,9=2,10=2,28=1/1;
 7/10=1,18=20,25=1/1,2,3,16;
 1/10=4,14=-1,18=20,19=15,26=3/3(2);
 2/9=110/2;
 99//99;
 2/9=110/2;
 3/5=1,6=6,7=10,11=2,16=1,25=1,30=1,71=1,74=-34/1,2,3;
 4/5=5,16=3,69=1/1;
 5/5=2,38=5/2;
 7//1,2,3,16;
 1/14=-1,18=20,19=15,26=3/3(-5);
 2/9=110/2;
 6/7=2,8=2,9=2,10=2,19=2,28=1/1;
 99/9=1/99;
 Leave Link    1 at Tue Apr  4 13:59:55 2023, MaxMem=           0 cpu:         0.7
 (Enter /hits/basement/its/doserbd/software/gaussian/g09d1/g09/l101.exe)
 ------------------------------
 Gaussian input prepared by ASE
 ------------------------------
 Symbolic Z-matrix:
 Charge =  0 Multiplicity = 1
 C                     0.        0.        0. 
 H                     0.61585   0.81505   0.37152 
 H                    -0.32044   0.21007  -1.01118 
 H                    -0.85813  -0.14999   0.64367 
 C                     0.79595  -1.26493  -0.01134 
 O                     0.30215  -2.32482  -0.39527 
 N                     2.04311  -1.16082   0.41037 
 H                     2.42715  -0.26754   0.70546 
 C                     2.90047  -2.31198   0.45087 
 H                     2.9787   -2.71416  -0.55523 
 H                     2.41521  -3.06569   1.08059 
 C                     4.27554  -2.01982   0.99899 
 O                     4.5913   -0.87879   1.33475 
 N                     5.09329  -3.06161   1.11066 
 C                     4.742    -4.45283   0.88955 
 H                     4.22581  -4.59111  -0.04929 
 H                     4.12739  -4.78898   1.7188 
 C                     6.05916  -5.21305   0.88157 
 H                     6.42045  -5.30197  -0.13649 
 H                     5.96312  -6.18142   1.35533 
 C                     7.01871  -4.3357    1.67176 
 H                     8.02589  -4.44518   1.28782 
 H                     6.98099  -4.60176   2.72281 
 C                     6.48108  -2.9217    1.48398 
 H                     6.54052  -2.35437   2.39858 
 C                     7.26565  -2.17069   0.42646 
 O                     6.77704  -1.95987  -0.68228 
 N                     8.50422  -1.81785   0.77164 
 H                     8.8871   -2.08687   1.66653 
 C                     9.36596  -1.08098  -0.13407 
 H                     9.43647  -1.65247  -1.05848 
 C                     8.72252   0.28674  -0.4094 
 H                     9.32374   0.85456  -1.10618 
 H                     7.74244   0.15434  -0.86941 
 H                     8.5997    0.82584   0.51883 
 C                     10.79114  -0.91721   0.37792 
 O                     11.1175  -1.386     1.4753 
 N                     11.6285  -0.25977  -0.40948 
 H                     11.30151   0.10207  -1.29647 
 C                     12.99822   0.        0. 
 H                     13.52071   0.55297  -0.77539 
 H                     12.98868   0.55443   0.93398 
 H                     13.48663  -0.96599   0.17156 
 
 The following ModRedundant input section has been read:
 
 NAtoms=     43 NQM=       43 NQMF=       0 NMMI=      0 NMMIF=      0
                NMic=       0 NMicF=      0.
                    Isotopes and Nuclear Properties:
 (Nuclear quadrupole moments (NQMom) in fm**2, nuclear magnetic moments (NMagM)
  in nuclear magnetons)

  Atom         1           2           3           4           5           6           7           8           9          10
 IAtWgt=          12           1           1           1          12          16          14           1          12           1
 AtmWgt=  12.0000000   1.0078250   1.0078250   1.0078250  12.0000000  15.9949146  14.0030740   1.0078250  12.0000000   1.0078250
 NucSpn=           0           1           1           1           0           0           2           1           0           1
 AtZEff=   0.0000000   0.0000000   0.0000000   0.0000000   0.0000000   0.0000000   0.0000000   0.0000000   0.0000000   0.0000000
 NQMom=    0.0000000   0.0000000   0.0000000   0.0000000   0.0000000   0.0000000   2.0440000   0.0000000   0.0000000   0.0000000
 NMagM=    0.0000000   2.7928460   2.7928460   2.7928460   0.0000000   0.0000000   0.4037610   2.7928460   0.0000000   2.7928460
 AtZNuc=   6.0000000   1.0000000   1.0000000   1.0000000   6.0000000   8.0000000   7.0000000   1.0000000   6.0000000   1.0000000

  Atom        11          12          13          14          15          16          17          18          19          20
 IAtWgt=           1          12          16          14          12           1           1          12           1           1
 AtmWgt=   1.0078250  12.0000000  15.9949146  14.0030740  12.0000000   1.0078250   1.0078250  12.0000000   1.0078250   1.0078250
 NucSpn=           1           0           0           2           0           1           1           0           1           1
 AtZEff=   0.0000000   0.0000000   0.0000000   0.0000000   0.0000000   0.0000000   0.0000000   0.0000000   0.0000000   0.0000000
 NQMom=    0.0000000   0.0000000   0.0000000   2.0440000   0.0000000   0.0000000   0.0000000   0.0000000   0.0000000   0.0000000
 NMagM=    2.7928460   0.0000000   0.0000000   0.4037610   0.0000000   2.7928460   2.7928460   0.0000000   2.7928460   2.7928460
 AtZNuc=   1.0000000   6.0000000   8.0000000   7.0000000   6.0000000   1.0000000   1.0000000   6.0000000   1.0000000   1.0000000

  Atom        21          22          23          24          25          26          27          28          29          30
 IAtWgt=          12           1           1          12           1          12          16          14           1          12
 AtmWgt=  12.0000000   1.0078250   1.0078250  12.0000000   1.0078250  12.0000000  15.9949146  14.0030740   1.0078250  12.0000000
 NucSpn=           0           1           1           0           1           0           0           2           1           0
 AtZEff=   0.0000000   0.0000000   0.0000000   0.0000000   0.0000000   0.0000000   0.0000000   0.0000000   0.0000000   0.0000000
 NQMom=    0.0000000   0.0000000   0.0000000   0.0000000   0.0000000   0.0000000   0.0000000   2.0440000   0.0000000   0.0000000
 NMagM=    0.0000000   2.7928460   2.7928460   0.0000000   2.7928460   0.0000000   0.0000000   0.4037610   2.7928460   0.0000000
 AtZNuc=   6.0000000   1.0000000   1.0000000   6.0000000   1.0000000   6.0000000   8.0000000   7.0000000   1.0000000   6.0000000

  Atom        31          32          33          34          35          36          37          38          39          40
 IAtWgt=           1          12           1           1           1          12          16          14           1          12
 AtmWgt=   1.0078250  12.0000000   1.0078250   1.0078250   1.0078250  12.0000000  15.9949146  14.0030740   1.0078250  12.0000000
 NucSpn=           1           0           1           1           1           0           0           2           1           0
 AtZEff=   0.0000000   0.0000000   0.0000000   0.0000000   0.0000000   0.0000000   0.0000000   0.0000000   0.0000000   0.0000000
 NQMom=    0.0000000   0.0000000   0.0000000   0.0000000   0.0000000   0.0000000   0.0000000   2.0440000   0.0000000   0.0000000
 NMagM=    2.7928460   0.0000000   2.7928460   2.7928460   2.7928460   0.0000000   0.0000000   0.4037610   2.7928460   0.0000000
 AtZNuc=   1.0000000   6.0000000   1.0000000   1.0000000   1.0000000   6.0000000   8.0000000   7.0000000   1.0000000   6.0000000

  Atom        41          42          43
 IAtWgt=           1           1           1
 AtmWgt=   1.0078250   1.0078250   1.0078250
 NucSpn=           1           1           1
 AtZEff=   0.0000000   0.0000000   0.0000000
 NQMom=    0.0000000   0.0000000   0.0000000
 NMagM=    2.7928460   2.7928460   2.7928460
 AtZNuc=   1.0000000   1.0000000   1.0000000
 Leave Link  101 at Tue Apr  4 13:59:55 2023, MaxMem=    33554432 cpu:         1.0
 (Enter /hits/basement/its/doserbd/software/gaussian/g09d1/g09/l103.exe)

 GradGradGradGradGradGradGradGradGradGradGradGradGradGradGradGradGradGrad
 Berny optimization.
 Initialization pass.
                           ----------------------------
                           !    Initial Parameters    !
                           ! (Angstroms and Degrees)  !
 --------------------------                            --------------------------
 ! Name  Definition              Value          Derivative Info.                !
 --------------------------------------------------------------------------------
 ! R1    R(1,2)                  1.087          calculate D2E/DX2 analytically  !
 ! R2    R(1,3)                  1.0813         calculate D2E/DX2 analytically  !
 ! R3    R(1,4)                  1.0831         calculate D2E/DX2 analytically  !
 ! R4    R(1,5)                  1.4946         calculate D2E/DX2 analytically  !
 ! R5    R(5,6)                  1.2307         calculate D2E/DX2 analytically  !
 ! R6    R(5,7)                  1.3206         calculate D2E/DX2 analytically  !
 ! R7    R(7,8)                  1.0161         calculate D2E/DX2 analytically  !
 ! R8    R(7,9)                  1.4359         calculate D2E/DX2 analytically  !
 ! R9    R(9,10)                 1.0863         calculate D2E/DX2 analytically  !
 ! R10   R(9,11)                 1.0955         calculate D2E/DX2 analytically  !
 ! R11   R(9,12)                 1.5088         calculate D2E/DX2 analytically  !
 ! R12   R(12,13)                1.2306         calculate D2E/DX2 analytically  !
 ! R13   R(12,14)                1.3291         calculate D2E/DX2 analytically  !
 ! R14   R(14,15)                1.4518         calculate D2E/DX2 analytically  !
 ! R15   R(14,24)                1.4439         calculate D2E/DX2 analytically  !
 ! R16   R(15,16)                1.0803         calculate D2E/DX2 analytically  !
 ! R17   R(15,17)                1.0855         calculate D2E/DX2 analytically  !
 ! R18   R(15,18)                1.5208         calculate D2E/DX2 analytically  !
 ! R19   R(18,19)                1.0839         calculate D2E/DX2 analytically  !
 ! R20   R(18,20)                1.0823         calculate D2E/DX2 analytically  !
 ! R21   R(18,21)                1.5215         calculate D2E/DX2 analytically  !
 ! R22   R(21,22)                1.0834         calculate D2E/DX2 analytically  !
 ! R23   R(21,23)                1.0849         calculate D2E/DX2 analytically  !
 ! R24   R(21,24)                1.5244         calculate D2E/DX2 analytically  !
 ! R25   R(24,25)                1.0779         calculate D2E/DX2 analytically  !
 ! R26   R(24,26)                1.5159         calculate D2E/DX2 analytically  !
 ! R27   R(26,27)                1.2298         calculate D2E/DX2 analytically  !
 ! R28   R(26,28)                1.3333         calculate D2E/DX2 analytically  !
 ! R29   R(28,29)                1.0099         calculate D2E/DX2 analytically  !
 ! R30   R(28,30)                1.4512         calculate D2E/DX2 analytically  !
 ! R31   R(30,31)                1.0891         calculate D2E/DX2 analytically  !
 ! R32   R(30,32)                1.5364         calculate D2E/DX2 analytically  !
 ! R33   R(30,36)                1.5232         calculate D2E/DX2 analytically  !
 ! R34   R(32,33)                1.0814         calculate D2E/DX2 analytically  !
 ! R35   R(32,34)                1.0907         calculate D2E/DX2 analytically  !
 ! R36   R(32,35)                1.0804         calculate D2E/DX2 analytically  !
 ! R37   R(36,37)                1.2371         calculate D2E/DX2 analytically  !
 ! R38   R(36,38)                1.3242         calculate D2E/DX2 analytically  !
 ! R39   R(38,39)                1.0122         calculate D2E/DX2 analytically  !
 ! R40   R(38,40)                1.453          calculate D2E/DX2 analytically  !
 ! R41   R(40,41)                1.0863         calculate D2E/DX2 analytically  !
 ! R42   R(40,42)                1.0862         calculate D2E/DX2 analytically  !
 ! R43   R(40,43)                1.0959         calculate D2E/DX2 analytically  !
 ! A1    A(2,1,3)              109.9885         calculate D2E/DX2 analytically  !
 ! A2    A(2,1,4)              110.462          calculate D2E/DX2 analytically  !
 ! A3    A(2,1,5)              109.6009         calculate D2E/DX2 analytically  !
 ! A4    A(3,1,4)              110.3549         calculate D2E/DX2 analytically  !
 ! A5    A(3,1,5)              108.369          calculate D2E/DX2 analytically  !
 ! A6    A(4,1,5)              108.0133         calculate D2E/DX2 analytically  !
 ! A7    A(1,5,6)              121.1699         calculate D2E/DX2 analytically  !
 ! A8    A(1,5,7)              115.7082         calculate D2E/DX2 analytically  !
 ! A9    A(6,5,7)              123.1218         calculate D2E/DX2 analytically  !
 ! A10   A(5,7,8)              121.262          calculate D2E/DX2 analytically  !
 ! A11   A(5,7,9)              120.6413         calculate D2E/DX2 analytically  !
 ! A12   A(8,7,9)              118.0936         calculate D2E/DX2 analytically  !
 ! A13   A(7,9,10)             108.2809         calculate D2E/DX2 analytically  !
 ! A14   A(7,9,11)             107.6557         calculate D2E/DX2 analytically  !
 ! A15   A(7,9,12)             113.5252         calculate D2E/DX2 analytically  !
 ! A16   A(10,9,11)            108.033          calculate D2E/DX2 analytically  !
 ! A17   A(10,9,12)            110.0297         calculate D2E/DX2 analytically  !
 ! A18   A(11,9,12)            109.1526         calculate D2E/DX2 analytically  !
 ! A19   A(9,12,13)            120.8303         calculate D2E/DX2 analytically  !
 ! A20   A(9,12,14)            116.0697         calculate D2E/DX2 analytically  !
 ! A21   A(13,12,14)           123.0915         calculate D2E/DX2 analytically  !
 ! A22   A(12,14,15)           126.1175         calculate D2E/DX2 analytically  !
 ! A23   A(12,14,24)           122.4881         calculate D2E/DX2 analytically  !
 ! A24   A(15,14,24)           111.3942         calculate D2E/DX2 analytically  !
 ! A25   A(14,15,16)           111.755          calculate D2E/DX2 analytically  !
 ! A26   A(14,15,17)           108.5047         calculate D2E/DX2 analytically  !
 ! A27   A(14,15,18)           105.679          calculate D2E/DX2 analytically  !
 ! A28   A(16,15,17)           110.7149         calculate D2E/DX2 analytically  !
 ! A29   A(16,15,18)           110.2002         calculate D2E/DX2 analytically  !
 ! A30   A(17,15,18)           109.8506         calculate D2E/DX2 analytically  !
 ! A31   A(15,18,19)           109.5491         calculate D2E/DX2 analytically  !
 ! A32   A(15,18,20)           111.5987         calculate D2E/DX2 analytically  !
 ! A33   A(15,18,21)           104.7878         calculate D2E/DX2 analytically  !
 ! A34   A(19,18,20)           111.5493         calculate D2E/DX2 analytically  !
 ! A35   A(19,18,21)           108.9589         calculate D2E/DX2 analytically  !
 ! A36   A(20,18,21)           110.1552         calculate D2E/DX2 analytically  !
 ! A37   A(18,21,22)           110.1189         calculate D2E/DX2 analytically  !
 ! A38   A(18,21,23)           109.8659         calculate D2E/DX2 analytically  !
 ! A39   A(18,21,24)           104.3876         calculate D2E/DX2 analytically  !
 ! A40   A(22,21,23)           110.5408         calculate D2E/DX2 analytically  !
 ! A41   A(22,21,24)           112.2069         calculate D2E/DX2 analytically  !
 ! A42   A(23,21,24)           109.547          calculate D2E/DX2 analytically  !
 ! A43   A(14,24,21)           106.3172         calculate D2E/DX2 analytically  !
 ! A44   A(14,24,25)           108.8669         calculate D2E/DX2 analytically  !
 ! A45   A(14,24,26)           111.4128         calculate D2E/DX2 analytically  !
 ! A46   A(21,24,25)           111.3609         calculate D2E/DX2 analytically  !
 ! A47   A(21,24,26)           111.2817         calculate D2E/DX2 analytically  !
 ! A48   A(25,24,26)           107.6158         calculate D2E/DX2 analytically  !
 ! A49   A(24,26,27)           120.5464         calculate D2E/DX2 analytically  !
 ! A50   A(24,26,28)           115.5496         calculate D2E/DX2 analytically  !
 ! A51   A(27,26,28)           123.8553         calculate D2E/DX2 analytically  !
 ! A52   A(26,28,29)           120.7389         calculate D2E/DX2 analytically  !
 ! A53   A(26,28,30)           121.63           calculate D2E/DX2 analytically  !
 ! A54   A(29,28,30)           117.5936         calculate D2E/DX2 analytically  !
 ! A55   A(28,30,31)           107.5628         calculate D2E/DX2 analytically  !
 ! A56   A(28,30,32)           108.3713         calculate D2E/DX2 analytically  !
 ! A57   A(28,30,36)           113.6047         calculate D2E/DX2 analytically  !
 ! A58   A(31,30,32)           110.0077         calculate D2E/DX2 analytically  !
 ! A59   A(31,30,36)           106.3291         calculate D2E/DX2 analytically  !
 ! A60   A(32,30,36)           110.8779         calculate D2E/DX2 analytically  !
 ! A61   A(30,32,33)           110.4909         calculate D2E/DX2 analytically  !
 ! A62   A(30,32,34)           110.1108         calculate D2E/DX2 analytically  !
 ! A63   A(30,32,35)           109.7455         calculate D2E/DX2 analytically  !
 ! A64   A(33,32,34)           106.9515         calculate D2E/DX2 analytically  !
 ! A65   A(33,32,35)           110.7796         calculate D2E/DX2 analytically  !
 ! A66   A(34,32,35)           108.709          calculate D2E/DX2 analytically  !
 ! A67   A(30,36,37)           120.2815         calculate D2E/DX2 analytically  !
 ! A68   A(30,36,38)           116.4348         calculate D2E/DX2 analytically  !
 ! A69   A(37,36,38)           123.2837         calculate D2E/DX2 analytically  !
 ! A70   A(36,38,39)           119.6219         calculate D2E/DX2 analytically  !
 ! A71   A(36,38,40)           121.151          calculate D2E/DX2 analytically  !
 ! A72   A(39,38,40)           119.1803         calculate D2E/DX2 analytically  !
 ! A73   A(38,40,41)           110.0756         calculate D2E/DX2 analytically  !
 ! A74   A(38,40,42)           108.9834         calculate D2E/DX2 analytically  !
 ! A75   A(38,40,43)           107.8566         calculate D2E/DX2 analytically  !
 ! A76   A(41,40,42)           110.9876         calculate D2E/DX2 analytically  !
 ! A77   A(41,40,43)           110.2473         calculate D2E/DX2 analytically  !
 ! A78   A(42,40,43)           108.6157         calculate D2E/DX2 analytically  !
 ! D1    D(2,1,5,6)            179.994          calculate D2E/DX2 analytically  !
 ! D2    D(2,1,5,7)             -0.125          calculate D2E/DX2 analytically  !
 ! D3    D(3,1,5,6)            -59.9673         calculate D2E/DX2 analytically  !
 ! D4    D(3,1,5,7)            119.9137         calculate D2E/DX2 analytically  !
 ! D5    D(4,1,5,6)             59.5954         calculate D2E/DX2 analytically  !
 ! D6    D(4,1,5,7)           -120.5236         calculate D2E/DX2 analytically  !
 ! D7    D(1,5,7,8)             -0.9982         calculate D2E/DX2 analytically  !
 ! D8    D(1,5,7,9)            179.6456         calculate D2E/DX2 analytically  !
 ! D9    D(6,5,7,8)            178.8802         calculate D2E/DX2 analytically  !
 ! D10   D(6,5,7,9)             -0.4759         calculate D2E/DX2 analytically  !
 ! D11   D(5,7,9,10)            59.3238         calculate D2E/DX2 analytically  !
 ! D12   D(5,7,9,11)           -57.2455         calculate D2E/DX2 analytically  !
 ! D13   D(5,7,9,12)          -178.1813         calculate D2E/DX2 analytically  !
 ! D14   D(8,7,9,10)          -120.0523         calculate D2E/DX2 analytically  !
 ! D15   D(8,7,9,11)           123.3783         calculate D2E/DX2 analytically  !
 ! D16   D(8,7,9,12)             2.4426         calculate D2E/DX2 analytically  !
 ! D17   D(7,9,12,13)           -1.6401         calculate D2E/DX2 analytically  !
 ! D18   D(7,9,12,14)          177.326          calculate D2E/DX2 analytically  !
 ! D19   D(10,9,12,13)         119.8829         calculate D2E/DX2 analytically  !
 ! D20   D(10,9,12,14)         -61.151          calculate D2E/DX2 analytically  !
 ! D21   D(11,9,12,13)        -121.7307         calculate D2E/DX2 analytically  !
 ! D22   D(11,9,12,14)          57.2354         calculate D2E/DX2 analytically  !
 ! D23   D(9,12,14,15)          -6.8626         calculate D2E/DX2 analytically  !
 ! D24   D(9,12,14,24)         173.3258         calculate D2E/DX2 analytically  !
 ! D25   D(13,12,14,15)        172.0777         calculate D2E/DX2 analytically  !
 ! D26   D(13,12,14,24)         -7.7339         calculate D2E/DX2 analytically  !
 ! D27   D(12,14,15,16)         49.7119         calculate D2E/DX2 analytically  !
 ! D28   D(12,14,15,17)        -72.6433         calculate D2E/DX2 analytically  !
 ! D29   D(12,14,15,18)        169.5904         calculate D2E/DX2 analytically  !
 ! D30   D(24,14,15,16)       -130.4587         calculate D2E/DX2 analytically  !
 ! D31   D(24,14,15,17)        107.1861         calculate D2E/DX2 analytically  !
 ! D32   D(24,14,15,18)        -10.5802         calculate D2E/DX2 analytically  !
 ! D33   D(12,14,24,21)        173.0144         calculate D2E/DX2 analytically  !
 ! D34   D(12,14,24,25)         52.9404         calculate D2E/DX2 analytically  !
 ! D35   D(12,14,24,26)        -65.5844         calculate D2E/DX2 analytically  !
 ! D36   D(15,14,24,21)         -6.8222         calculate D2E/DX2 analytically  !
 ! D37   D(15,14,24,25)       -126.8962         calculate D2E/DX2 analytically  !
 ! D38   D(15,14,24,26)        114.579          calculate D2E/DX2 analytically  !
 ! D39   D(14,15,18,19)        -93.1957         calculate D2E/DX2 analytically  !
 ! D40   D(14,15,18,20)        142.7635         calculate D2E/DX2 analytically  !
 ! D41   D(14,15,18,21)         23.5679         calculate D2E/DX2 analytically  !
 ! D42   D(16,15,18,19)         27.6995         calculate D2E/DX2 analytically  !
 ! D43   D(16,15,18,20)        -96.3414         calculate D2E/DX2 analytically  !
 ! D44   D(16,15,18,21)        144.4631         calculate D2E/DX2 analytically  !
 ! D45   D(17,15,18,19)        149.9445         calculate D2E/DX2 analytically  !
 ! D46   D(17,15,18,20)         25.9037         calculate D2E/DX2 analytically  !
 ! D47   D(17,15,18,21)        -93.2919         calculate D2E/DX2 analytically  !
 ! D48   D(15,18,21,22)       -147.9742         calculate D2E/DX2 analytically  !
 ! D49   D(15,18,21,23)         90.0419         calculate D2E/DX2 analytically  !
 ! D50   D(15,18,21,24)        -27.3425         calculate D2E/DX2 analytically  !
 ! D51   D(19,18,21,22)        -30.8054         calculate D2E/DX2 analytically  !
 ! D52   D(19,18,21,23)       -152.7892         calculate D2E/DX2 analytically  !
 ! D53   D(19,18,21,24)         89.8263         calculate D2E/DX2 analytically  !
 ! D54   D(20,18,21,22)         91.8642         calculate D2E/DX2 analytically  !
 ! D55   D(20,18,21,23)        -30.1197         calculate D2E/DX2 analytically  !
 ! D56   D(20,18,21,24)       -147.5042         calculate D2E/DX2 analytically  !
 ! D57   D(18,21,24,14)         21.3002         calculate D2E/DX2 analytically  !
 ! D58   D(18,21,24,25)        139.7437         calculate D2E/DX2 analytically  !
 ! D59   D(18,21,24,26)       -100.1848         calculate D2E/DX2 analytically  !
 ! D60   D(22,21,24,14)        140.5277         calculate D2E/DX2 analytically  !
 ! D61   D(22,21,24,25)       -101.0288         calculate D2E/DX2 analytically  !
 ! D62   D(22,21,24,26)         19.0427         calculate D2E/DX2 analytically  !
 ! D63   D(23,21,24,14)        -96.3037         calculate D2E/DX2 analytically  !
 ! D64   D(23,21,24,25)         22.1398         calculate D2E/DX2 analytically  !
 ! D65   D(23,21,24,26)        142.2113         calculate D2E/DX2 analytically  !
 ! D66   D(14,24,26,27)        -12.1281         calculate D2E/DX2 analytically  !
 ! D67   D(14,24,26,28)        170.3109         calculate D2E/DX2 analytically  !
 ! D68   D(21,24,26,27)        106.3368         calculate D2E/DX2 analytically  !
 ! D69   D(21,24,26,28)        -71.2242         calculate D2E/DX2 analytically  !
 ! D70   D(25,24,26,27)       -131.3999         calculate D2E/DX2 analytically  !
 ! D71   D(25,24,26,28)         51.0391         calculate D2E/DX2 analytically  !
 ! D72   D(24,26,28,29)          2.9943         calculate D2E/DX2 analytically  !
 ! D73   D(24,26,28,30)       -179.2875         calculate D2E/DX2 analytically  !
 ! D74   D(27,26,28,29)       -174.4763         calculate D2E/DX2 analytically  !
 ! D75   D(27,26,28,30)          3.2419         calculate D2E/DX2 analytically  !
 ! D76   D(26,28,30,31)        -55.7626         calculate D2E/DX2 analytically  !
 ! D77   D(26,28,30,32)         63.1358         calculate D2E/DX2 analytically  !
 ! D78   D(26,28,30,36)       -173.1585         calculate D2E/DX2 analytically  !
 ! D79   D(29,28,30,31)        122.0245         calculate D2E/DX2 analytically  !
 ! D80   D(29,28,30,32)       -119.0771         calculate D2E/DX2 analytically  !
 ! D81   D(29,28,30,36)          4.6286         calculate D2E/DX2 analytically  !
 ! D82   D(28,30,32,33)       -178.3109         calculate D2E/DX2 analytically  !
 ! D83   D(28,30,32,34)        -60.3867         calculate D2E/DX2 analytically  !
 ! D84   D(28,30,32,35)         59.2408         calculate D2E/DX2 analytically  !
 ! D85   D(31,30,32,33)        -60.9688         calculate D2E/DX2 analytically  !
 ! D86   D(31,30,32,34)         56.9553         calculate D2E/DX2 analytically  !
 ! D87   D(31,30,32,35)        176.5829         calculate D2E/DX2 analytically  !
 ! D88   D(36,30,32,33)         56.3617         calculate D2E/DX2 analytically  !
 ! D89   D(36,30,32,34)        174.2859         calculate D2E/DX2 analytically  !
 ! D90   D(36,30,32,35)        -66.0865         calculate D2E/DX2 analytically  !
 ! D91   D(28,30,36,37)         -0.3724         calculate D2E/DX2 analytically  !
 ! D92   D(28,30,36,38)        179.59           calculate D2E/DX2 analytically  !
 ! D93   D(31,30,36,37)       -118.4826         calculate D2E/DX2 analytically  !
 ! D94   D(31,30,36,38)         61.4798         calculate D2E/DX2 analytically  !
 ! D95   D(32,30,36,37)        121.9578         calculate D2E/DX2 analytically  !
 ! D96   D(32,30,36,38)        -58.0798         calculate D2E/DX2 analytically  !
 ! D97   D(30,36,38,39)          0.1427         calculate D2E/DX2 analytically  !
 ! D98   D(30,36,38,40)        177.6345         calculate D2E/DX2 analytically  !
 ! D99   D(37,36,38,39)       -179.8962         calculate D2E/DX2 analytically  !
 ! D100  D(37,36,38,40)         -2.4044         calculate D2E/DX2 analytically  !
 ! D101  D(36,38,40,41)       -179.6974         calculate D2E/DX2 analytically  !
 ! D102  D(36,38,40,42)        -57.7602         calculate D2E/DX2 analytically  !
 ! D103  D(36,38,40,43)         59.9816         calculate D2E/DX2 analytically  !
 ! D104  D(39,38,40,41)         -2.1947         calculate D2E/DX2 analytically  !
 ! D105  D(39,38,40,42)        119.7425         calculate D2E/DX2 analytically  !
 ! D106  D(39,38,40,43)       -122.5157         calculate D2E/DX2 analytically  !
 --------------------------------------------------------------------------------
 Trust Radius=3.00D-01 FncErr=1.00D-07 GrdErr=1.00D-06
 Number of steps in this run=    237 maximum allowed number of steps=    258.
 GradGradGradGradGradGradGradGradGradGradGradGradGradGradGradGradGradGrad

 Leave Link  103 at Tue Apr  4 13:59:55 2023, MaxMem=    33554432 cpu:         0.1
 (Enter /hits/basement/its/doserbd/software/gaussian/g09d1/g09/l202.exe)
                          Input orientation:                          
 ---------------------------------------------------------------------
 Center     Atomic      Atomic             Coordinates (Angstroms)
 Number     Number       Type             X           Y           Z
 ---------------------------------------------------------------------
      1          6           0        0.000000    0.000000    0.000000
      2          1           0        0.615853    0.815045    0.371518
      3          1           0       -0.320436    0.210068   -1.011184
      4          1           0       -0.858133   -0.149993    0.643670
      5          6           0        0.795947   -1.264927   -0.011344
      6          8           0        0.302149   -2.324816   -0.395268
      7          7           0        2.043110   -1.160816    0.410374
      8          1           0        2.427147   -0.267542    0.705463
      9          6           0        2.900473   -2.311984    0.450868
     10          1           0        2.978699   -2.714161   -0.555231
     11          1           0        2.415215   -3.065691    1.080590
     12          6           0        4.275538   -2.019824    0.998991
     13          8           0        4.591305   -0.878790    1.334748
     14          7           0        5.093289   -3.061608    1.110660
     15          6           0        4.742002   -4.452833    0.889546
     16          1           0        4.225808   -4.591112   -0.049295
     17          1           0        4.127395   -4.788980    1.718801
     18          6           0        6.059159   -5.213053    0.881573
     19          1           0        6.420455   -5.301974   -0.136493
     20          1           0        5.963123   -6.181420    1.355326
     21          6           0        7.018713   -4.335697    1.671764
     22          1           0        8.025889   -4.445178    1.287824
     23          1           0        6.980993   -4.601757    2.722806
     24          6           0        6.481078   -2.921701    1.483977
     25          1           0        6.540517   -2.354367    2.398581
     26          6           0        7.265647   -2.170692    0.426463
     27          8           0        6.777042   -1.959871   -0.682284
     28          7           0        8.504216   -1.817849    0.771641
     29          1           0        8.887099   -2.086874    1.666530
     30          6           0        9.365965   -1.080984   -0.134074
     31          1           0        9.436475   -1.652473   -1.058481
     32          6           0        8.722515    0.286741   -0.409395
     33          1           0        9.323744    0.854561   -1.106178
     34          1           0        7.742435    0.154343   -0.869410
     35          1           0        8.599699    0.825835    0.518825
     36          6           0       10.791144   -0.917212    0.377925
     37          8           0       11.117504   -1.386000    1.475297
     38          7           0       11.628497   -0.259766   -0.409479
     39          1           0       11.301506    0.102069   -1.296470
     40          6           0       12.998223    0.000000    0.000000
     41          1           0       13.520710    0.552971   -0.775391
     42          1           0       12.988683    0.554429    0.933979
     43          1           0       13.486628   -0.965986    0.171556
 ---------------------------------------------------------------------
                    Distance matrix (angstroms):
                    1          2          3          4          5
     1  C    0.000000
     2  H    1.087014   0.000000
     3  H    1.081342   1.776091   0.000000
     4  H    1.083144   1.782695   1.776879   0.000000
     5  C    1.494557   2.122569   2.102760   2.099548   0.000000
     6  O    2.377457   3.247322   2.681902   2.674977   1.230691
     7  N    2.385414   2.437745   3.080016   3.081136   1.320644
     8  H    2.541712   2.136422   3.274782   3.287963   2.041911
     9  C    3.736482   3.873513   4.344261   4.340334   2.395621
    10  H    4.067874   4.347091   4.432076   4.767977   2.675911
    11  H    4.049617   4.335966   4.752883   4.405338   2.656520
    12  C    4.833001   4.671563   5.489645   5.475135   3.701108
    13  O    4.861471   4.427313   5.551054   5.541218   4.045467
    14  N    6.045544   5.968434   6.671919   6.641912   4.791044
    15  C    6.565486   6.711483   7.140287   7.066569   5.152252
    16  H    6.240048   6.514246   6.681684   6.786030   4.777960
    17  H    6.551641   6.749163   7.226790   6.894316   5.148874
    18  C    8.041548   8.138040   8.584404   8.575552   6.639759
    19  H    8.327773   8.448041   8.751417   8.951503   6.924486
    20  H    8.695154   8.860683   9.270092   9.133132   7.262190
    21  C    8.417565   8.319700   9.040205   8.978964   7.140399
    22  H    9.264610   9.133356   9.829440   9.888852   8.004617
    23  H    8.793412   8.682471   9.508270   9.251643   7.540875
    24  C    7.262431   7.042847   7.892680   7.890025   6.107504
    25  H    7.353543   7.018248   8.079325   7.917007   6.324136
    26  C    7.594959   7.289540   8.079821   8.374139   6.547450
    27  O    7.087658   6.838925   7.429065   7.957996   6.058597
    28  N    8.730504   8.325773   9.228510   9.510610   7.767638
    29  H    9.279704   8.860683   9.860264   9.988358   8.304071
    30  C    9.429093   8.967441   9.811345  10.295815   8.572870
    31  H    9.638366   9.270216   9.933207  10.541997   8.712371
    32  C    8.736824   8.161305   9.063278   9.648238   8.086816
    33  H    9.427943   8.832469   9.666157  10.379870   8.855179
    34  H    7.792625   7.263925   8.064310   8.737952   7.141729
    35  H    8.654825   7.985211   9.071323   9.508859   8.096351
    36  C   10.836646  10.321691  11.254670  11.677538  10.008816
    37  O   11.300283  10.786454  11.813403  12.067941  10.428773
    38  N   11.638604  11.092497  11.973295  12.531444  10.886368
    39  H   11.376085  10.838528  11.625945  12.316026  10.671785
    40  C   12.998223  12.414725  13.358641  13.872109  12.267669
    41  H   13.554210  12.958372  13.847400  14.465787  12.876649
    42  H   13.034017  12.388349  13.454921  13.867761  12.363919
    43  H   13.522267  12.994957  13.907444  14.375705  12.695519
                    6          7          8          9         10
     6  O    0.000000
     7  N    2.243858   0.000000
     8  H    3.155883   1.016120   0.000000
     9  C    2.732654   1.435932   2.113906   0.000000
    10  H    2.709446   2.054410   2.807045   1.086324   0.000000
    11  H    2.681809   2.053339   2.823207   1.095491   1.765503
    12  C    4.221943   2.463351   2.563825   1.508841   2.139977
    13  O    4.845699   2.725307   2.335209   2.386252   3.088867
    14  N    5.075993   3.661557   3.883207   2.409502   2.714295
    15  C    5.088369   4.283807   4.786345   2.857779   2.866984
    16  H    4.544326   4.091748   4.743216   2.683487   2.309589
    17  H    5.017360   4.384039   4.935697   3.041135   3.285666
    18  C    6.566232   5.724622   6.138453   4.310336   4.218779
    19  H    6.809119   6.050570   6.480810   4.655674   4.326407
    20  H    7.069979   6.439402   6.920939   5.017011   4.957711
    21  C    7.309480   6.035528   6.210161   4.748252   4.889847
    22  H    8.184430   6.881177   7.009829   5.614348   5.645122
    23  H    7.714519   6.447488   6.602469   5.201481   5.506986
    24  C    6.485908   4.893761   4.907647   3.776215   4.058091
    25  H    6.835474   5.060059   4.913380   4.128595   4.641228
    26  C    7.013508   5.319304   5.206813   4.367528   4.431365
    27  O    6.491518   4.923667   4.869435   4.054109   3.874597
    28  N    8.300157   6.504468   6.272049   5.634625   5.752851
    29  H    8.832270   7.019665   6.779720   6.112953   6.343414
    30  C    9.152491   7.343501   7.036597   6.607579   6.606194
    31  H    9.183017   7.553880   7.359361   6.740356   6.563787
    32  C    8.816065   6.883451   6.417305   6.433475   6.482137
    33  H    9.591819   7.705148   7.218324   7.328697   7.300610
    34  H    7.856774   5.987470   5.559721   5.592003   5.569578
    35  H    8.922528   6.851817   6.271419   6.506282   6.729101
    36  C   10.611230   8.751486   8.395582   8.013326   8.070570
    37  O   11.016002   9.139442   8.795789   8.332257   8.492773
    38  N   11.513071   9.662489   9.268657   9.007230   8.992458
    39  H   11.299903   9.498742   9.104867   8.913933   8.817579
    40  C   12.913222  11.024083  10.597967  10.368852  10.395470
    41  H   13.533532  11.665265  11.222001  11.068022  11.038868
    42  H   13.076892  11.091519  10.595938  10.498652  10.634905
    43  H   13.266431  11.447668  11.094368  10.675036  10.677120
                   11         12         13         14         15
    11  H    0.000000
    12  C    2.135720   0.000000
    13  O    3.095561   1.230610   0.000000
    14  N    2.678246   1.329097   2.250978   0.000000
    15  C    2.715621   2.479738   3.604816   1.451826   0.000000
    16  H    2.623319   2.777211   3.978756   2.106514   1.080278
    17  H    2.511693   2.865013   3.956299   2.070411   1.085541
    18  C    4.234277   3.659481   4.598456   2.369409   1.520822
    19  H    4.745967   4.081973   5.007484   2.887213   2.142662
    20  H    4.729789   4.504864   5.477244   3.248030   2.167049
    21  C    4.811923   3.652520   4.237464   2.376005   2.410187
    22  H    5.781488   4.475589   4.951535   3.247430   3.307960
    23  H    5.089470   4.117936   4.636572   2.921387   2.897602
    24  C    4.088362   2.431666   2.786934   1.443918   2.392091
    25  H    4.388758   2.683449   2.666177   2.062377   3.148873
    26  C    4.975500   3.048163   3.105817   2.445608   3.433861
    27  O    4.832815   3.014598   3.164585   2.695088   3.581466
    28  N    6.223223   4.239599   4.063225   3.646409   4.594703
    29  H    6.571659   4.660107   4.474751   3.956273   4.835628
    30  C    7.329898   5.298839   4.999570   4.871139   5.813622
    31  H    7.474684   5.568070   5.459102   5.055106   5.803008
    32  C    7.296636   5.203787   4.633293   5.166556   6.324184
    33  H    8.238817   6.178851   5.599875   6.176366   7.289973
    34  H    6.523067   4.498589   3.981871   4.613133   5.772573
    35  H    7.328533   5.198721   4.431557   5.268529   6.548557
    36  C    8.675592   6.637364   6.273356   6.131957   7.025276
    37  O    8.871697   6.887750   6.547389   6.263529   7.098986
    38  N    9.745671   7.690748   7.276510   7.271183   8.166584
    39  H    9.728890   7.689980   7.274077   7.371913   8.279668
    40  C   11.070962   9.009045   8.557459   8.549561   9.422537
    41  H   11.826724   9.759144   9.286383   9.361827  10.241865
    42  H   11.176985   9.085698   8.528230   8.685862   9.647922
    43  H   11.305366   9.308029   8.971477   8.701822   9.441509
                   16         17         18         19         20
    16  H    0.000000
    17  H    1.781853   0.000000
    18  C    2.148139   2.147673   0.000000
    19  H    2.308549   2.993894   1.083928   0.000000
    20  H    2.742317   2.332574   1.082312   1.791117   0.000000
    21  C    3.290532   2.927012   1.521480   2.135743   2.149674
    22  H    4.031104   3.937283   2.150047   2.310887   2.697054
    23  H    3.908414   3.030858   2.147929   2.996681   2.324091
    24  C    3.197515   3.013586   2.406491   2.880156   3.303120
    25  H    4.043884   3.494653   3.271865   3.889653   4.008503
    26  C    3.914767   4.286514   3.304346   3.291838   4.318020
    27  O    3.719261   4.559572   3.680245   3.405099   4.757710
    28  N    5.164271   5.374132   4.185427   4.160036   5.083168
    29  H    5.562634   5.473472   4.287937   4.435324   5.041012
    30  C    6.224902   6.680195   5.388924   5.147116   6.309683
    31  H    6.066721   6.762936   5.277101   4.823412   6.196935
    32  C    6.644057   7.169888   6.245622   6.050430   7.250214
    33  H    7.534010   8.175090   7.171095   6.875485   8.176662
    34  H    5.963103   6.648594   5.891375   5.661819   6.946747
    35  H    6.985485   7.277884   6.561562   6.536712   7.533452
    36  C    7.535496   7.822666   6.410897   6.212383   7.209508
    37  O    7.751942   7.778252   6.370691   6.324160   7.041172
    38  N    8.584294   9.017200   7.564351   7.254109   8.383138
    39  H    8.581777   9.191414   7.776670   7.373866   8.660981
    40  C    9.901313  10.226446   8.723743   8.449651   9.462531
    41  H   10.648192  11.090167   9.574304   9.225085  10.344520
    42  H   10.209378  10.377399   9.015814   8.864818   9.742058
    43  H    9.947517  10.227634   8.585395   8.296174   9.230666
                   21         22         23         24         25
    21  C    0.000000
    22  H    1.083421   0.000000
    23  H    1.084850   1.781993   0.000000
    24  C    1.524369   2.178509   2.146439   0.000000
    25  H    2.163932   2.794924   2.312985   1.077915   0.000000
    26  C    2.509781   2.548176   3.356233   1.515883   2.109218
    27  O    3.353282   3.408475   4.314603   2.388598   3.115012
    28  N    3.058840   2.719945   3.725238   2.412260   2.605936
    29  H    2.923713   2.539035   3.327702   2.553272   2.472630
    30  C    4.400432   3.890424   5.123056   3.785353   4.002374
    31  H    4.527637   3.910767   5.387560   4.099927   4.564044
    32  C    5.348000   5.075126   6.061435   4.347758   4.429594
    33  H    6.322096   5.958431   7.065479   5.389787   5.506986
    34  H    5.209779   5.088182   6.008685   4.073267   4.291620
    35  H    5.519982   5.357630   6.077541   4.411814   4.229350
    36  C    5.252742   4.573959   5.795826   4.880369   4.921006
    37  O    5.053652   4.353367   5.385917   4.884148   4.768543
    38  N    6.495760   5.777309   7.089669   6.096474   6.177386
    39  H    6.844450   6.171361   7.546350   6.333293   6.508033
    40  C    7.572820   6.792805   8.049652   7.294635   7.279986
    41  H    8.494916   7.709176   9.031971   8.169119   8.200598
    42  H    7.752303   7.053411   8.116557   7.398304   7.223919
    43  H    7.445771   6.570426   7.877246   7.390873   7.425342
                   26         27         28         29         30
    26  C    0.000000
    27  O    1.229837   0.000000
    28  N    1.333304   2.262123   0.000000
    29  H    2.043012   3.159968   1.009851   0.000000
    30  C    2.431666   2.788458   1.451172   2.117380   0.000000
    31  H    2.680690   2.703442   2.060534   2.813574   1.089082
    32  C    2.976592   2.984393   2.423180   3.157626   1.536392
    33  H    3.966976   3.819215   3.367432   4.065784   2.166356
    34  H    2.704145   2.331716   2.676359   3.572716   2.168548
    35  H    3.281372   3.539054   2.657461   3.143835   2.156247
    36  C    3.742018   4.280678   2.489217   2.579535   1.523187
    37  O    4.068489   4.880994   2.740602   2.345741   2.398124
    38  N    4.835794   5.147951   3.685621   3.894021   2.422664
    39  H    4.941872   5.009950   3.973412   4.404566   2.548941
    40  C    6.144607   6.558178   4.908778   4.902418   3.792071
    41  H    6.927380   7.197229   5.760148   5.865330   4.510321
    42  H    6.359009   6.893366   5.075874   4.933163   4.115750
    43  H    6.341680   6.836329   5.090206   4.964575   4.133582
                   31         32         33         34         35
    31  H    0.000000
    32  C    2.166010   0.000000
    33  H    2.510020   1.081388   0.000000
    34  H    2.483969   1.090734   1.745537   0.000000
    35  H    3.054521   1.080417   1.779241   1.764370   0.000000
    36  C    2.106893   2.519643   2.737700   3.463914   2.803658
    37  O    3.052360   3.476507   3.860272   4.388781   3.485169
    38  N    2.676901   2.956924   2.653111   3.935035   3.348716
    39  H    2.571653   2.733533   2.124618   3.584983   3.334501
    40  C    4.066583   4.304823   3.931374   5.329447   4.505352
    41  H    4.650280   4.819492   4.220770   5.792771   5.095665
    42  H    4.632332   4.480681   4.205247   5.561960   4.416922
    43  H    4.288123   4.960202   4.719809   5.944283   5.216637
                   36         37         38         39         40
    36  C    0.000000
    37  O    1.237134   0.000000
    38  N    1.324160   2.254307   0.000000
    39  H    2.025586   3.151333   1.012225   0.000000
    40  C    2.419773   2.763078   1.453031   2.137779   0.000000
    41  H    3.307885   3.821073   2.091626   2.323725   1.086278
    42  H    2.702610   2.749473   2.077956   2.833037   1.086186
    43  H    2.703812   2.736585   2.070990   2.840880   1.095947
                   41         42         43
    41  H    0.000000
    42  H    1.790251   0.000000
    43  H    1.790279   1.772258   0.000000
 Stoichiometry    C13H22N4O4
 Framework group  C1[X(C13H22N4O4)]
 Deg. of freedom   123
 Full point group                 C1      NOp   1
 Largest Abelian subgroup         C1      NOp   1
 Largest concise Abelian subgroup C1      NOp   1
                         Standard orientation:                         
 ---------------------------------------------------------------------
 Center     Atomic      Atomic             Coordinates (Angstroms)
 Number     Number       Type             X           Y           Z
 ---------------------------------------------------------------------
      1          6           0       -6.071346   -2.497896   -0.267969
      2          1           0       -5.377736   -3.099792   -0.849541
      3          1           0       -6.365233   -3.031981    0.625162
      4          1           0       -6.942590   -2.245907   -0.860114
      5          6           0       -5.407106   -1.223512    0.142431
      6          8           0       -6.003953   -0.381124    0.812323
      7          7           0       -4.157358   -1.074260   -0.257513
      8          1           0       -3.686203   -1.795904   -0.795790
      9          6           0       -3.420723    0.113721    0.071073
     10          1           0       -3.379803    0.200939    1.153117
     11          1           0       -3.981886    0.970695   -0.317248
     12          6           0       -2.025210    0.134934   -0.502244
     13          8           0       -1.597117   -0.816248   -1.155229
     14          7           0       -1.317206    1.236631   -0.275320
     15          6           0       -1.806311    2.456173    0.342168
     16          1           0       -2.330381    2.255287    1.265204
     17          1           0       -2.454745    2.964229   -0.364807
     18          6           0       -0.572595    3.303410    0.612418
     19          1           0       -0.218390    3.117353    1.619802
     20          1           0       -0.767621    4.355154    0.447499
     21          6           0        0.467713    2.801539   -0.377928
     22          1           0        1.460095    2.888245    0.048053
     23          1           0        0.399477    3.365843   -1.301943
     24          6           0        0.076240    1.351079   -0.636028
     25          1           0        0.189287    1.093084   -1.676489
     26          6           0        0.936478    0.397391    0.169186
     27          8           0        0.475716   -0.183072    1.150644
     28          7           0        2.203063    0.286808   -0.232354
     29          1           0        2.553553    0.848008   -0.995251
     30          6           0        3.138102   -0.600374    0.434362
     31          1           0        3.153955   -0.328724    1.488902
     32          6           0        2.637006   -2.043508    0.270756
     33          1           0        3.295028   -2.732932    0.781737
     34          1           0        1.650261   -2.151406    0.722852
     35          1           0        2.565829   -2.288367   -0.779138
     36          6           0        4.570647   -0.463298   -0.064763
     37          8           0        4.843997    0.342735   -0.962587
     38          7           0        5.472965   -1.241979    0.512193
     39          1           0        5.187420   -1.883432    1.241304
     40          6           0        6.860405   -1.232167    0.080667
     41          1           0        7.438877   -1.938767    0.668958
     42          1           0        6.903452   -1.478818   -0.976267
     43          1           0        7.248179   -0.216488    0.218968
 ---------------------------------------------------------------------
 Rotational constants (GHZ):      0.6307775      0.1170710      0.1034172
 Leave Link  202 at Tue Apr  4 13:59:55 2023, MaxMem=    33554432 cpu:         0.1
 (Enter /hits/basement/its/doserbd/software/gaussian/g09d1/g09/l301.exe)
 Standard basis: 6-31+G (6D, 7F)
 Ernie: Thresh=  0.10000D-02 Tol=  0.10000D-05 Strict=F.
 There are   317 symmetry adapted cartesian basis functions of A   symmetry.
 There are   317 symmetry adapted basis functions of A   symmetry.
   317 basis functions,   634 primitive gaussians,   317 cartesian basis functions
    80 alpha electrons       80 beta electrons
       nuclear repulsion energy      1735.1129108481 Hartrees.
 IExCor= 3226 DFT=T Ex+Corr=BMK ExCW=0 ScaHFX=  0.420000
 ScaDFX=  1.000000  1.000000  1.000000  1.000000 ScalE2=  1.000000  1.000000
 IRadAn=      0 IRanWt=     -1 IRanGd=            0 ICorTp=0 IEmpDi=  4
 NAtoms=   43 NActive=   43 NUniq=   43 SFac= 1.00D+00 NAtFMM=   60 NAOKFM=F Big=F
 Integral buffers will be    131072 words long.
 Raffenetti 2 integral format.
 Two-electron integral symmetry is turned on.
 Leave Link  301 at Tue Apr  4 13:59:55 2023, MaxMem=    33554432 cpu:         0.4
 (Enter /hits/basement/its/doserbd/software/gaussian/g09d1/g09/l302.exe)
 NPDir=0 NMtPBC=     1 NCelOv=     1 NCel=       1 NClECP=     1 NCelD=      1
         NCelK=      1 NCelE2=     1 NClLst=     1 CellRange=     0.0.
 One-electron integrals computed using PRISM.
 NBasis=   317 RedAO= T EigKep=  5.24D-06  NBF=   317
 NBsUse=   317 1.00D-06 EigRej= -1.00D+00 NBFU=   317
 Precomputing XC quadrature grid using
 IXCGrd= 4 IRadAn=           0 IRanWt=          -1 IRanGd=           0 AccXCQ= 0.00D+00.
 Generated NRdTot=       0 NPtTot=           0 NUsed=           0 NTot=          32
 NSgBfM=   307   307   307   307   308 MxSgAt=    43 MxSgA2=    43.
 Leave Link  302 at Tue Apr  4 13:59:56 2023, MaxMem=    33554432 cpu:         4.4
 (Enter /hits/basement/its/doserbd/software/gaussian/g09d1/g09/l303.exe)
 DipDrv:  MaxL=1.
 Leave Link  303 at Tue Apr  4 13:59:56 2023, MaxMem=    33554432 cpu:         0.6
 (Enter /hits/basement/its/doserbd/software/gaussian/g09d1/g09/l401.exe)
 ExpMin= 4.38D-02 ExpMax= 5.48D+03 ExpMxC= 8.25D+02 IAcc=2 IRadAn=         4 AccDes= 0.00D+00
 Harris functional with IExCor= 1009 and IRadAn=       4 diagonalized for initial guess.
 HarFok:  IExCor= 1009 AccDes= 0.00D+00 IRadAn=         4 IDoV= 1 UseB2=F ITyADJ=14
 ICtDFT=  3500011 ScaDFX=  1.000000  1.000000  1.000000  1.000000
 FoFCou: FMM=F IPFlag=           0 FMFlag=      100000 FMFlg1=           0
         NFxFlg=           0 DoJE=T BraDBF=F KetDBF=T FulRan=T
         wScrn=  0.000000 ICntrl=     500 IOpCl=  0 I1Cent=   200000004 NGrid=           0
         NMat0=    1 NMatS0=      1 NMatT0=    0 NMatD0=    1 NMtDS0=    0 NMtDT0=    0
 Petite list used in FoFCou.
 Harris En= -1027.40293625868    
 JPrj=0 DoOrth=F DoCkMO=F.
 Leave Link  401 at Tue Apr  4 13:59:58 2023, MaxMem=    33554432 cpu:        13.3
 (Enter /hits/basement/its/doserbd/software/gaussian/g09d1/g09/l502.exe)
 Closed shell SCF:
 Using DIIS extrapolation, IDIIS=  1040.
 Integral symmetry usage will be decided dynamically.
 IVT=      324986 IEndB=      324986 NGot=    33554432 MDV=    33346893
 LenX=    33346893 LenY=    33245963
 Requested convergence on RMS density matrix=1.00D-08 within 128 cycles.
 Requested convergence on MAX density matrix=1.00D-06.
 Requested convergence on             energy=1.00D-06.
 No special actions if energy rises.
 Fock matrices will be formed incrementally for  20 cycles.

 Cycle   1  Pass 1  IDiag  1:
 FoFJK:  IHMeth= 1 ICntrl=       0 DoSepK=F KAlg= 0 I1Cent=   0 FoldK=F
 IRaf= 780000000 NMat=   1 IRICut=       1 DoRegI=T DoRafI=F ISym2E= 0.
 FoFCou: FMM=F IPFlag=           0 FMFlag=      100000 FMFlg1=           0
         NFxFlg=           0 DoJE=F BraDBF=F KetDBF=F FulRan=T
         wScrn=  0.000000 ICntrl=       0 IOpCl=  0 I1Cent=           0 NGrid=           0
         NMat0=    1 NMatS0=      1 NMatT0=    0 NMatD0=    1 NMtDS0=    0 NMtDT0=    0
 Symmetry not used in FoFCou.
 E= -1027.22103753987    
 DIIS: error= 2.34D-02 at cycle   1 NSaved=   1.
 NSaved= 1 IEnMin= 1 EnMin= -1027.22103753987     IErMin= 1 ErrMin= 2.34D-02
 ErrMax= 2.34D-02  0.00D+00 EMaxC= 1.00D-01 BMatC= 5.64D-01 BMatP= 5.64D-01
 IDIUse=3 WtCom= 7.66D-01 WtEn= 2.34D-01
 Coeff-Com:  0.100D+01
 Coeff-En:   0.100D+01
 Coeff:      0.100D+01
 Gap=     0.328 Goal=   None    Shift=    0.000
 GapD=    0.328 DampG=1.000 DampE=0.500 DampFc=0.5000 IDamp=-1.
 Damping current iteration by 5.00D-01
 RMSDP=5.68D-02 MaxDP=7.71D+00              OVMax= 2.54D-01

 Cycle   2  Pass 1  IDiag  1:
 RMSU=  1.98D-02    CP:  1.29D+00
 E= -1027.40624751164     Delta-E=       -0.185209971773 Rises=F Damp=T
 DIIS: error= 1.07D-02 at cycle   2 NSaved=   2.
 NSaved= 2 IEnMin= 2 EnMin= -1027.40624751164     IErMin= 2 ErrMin= 1.07D-02
 ErrMax= 1.07D-02  0.00D+00 EMaxC= 1.00D-01 BMatC= 6.36D-02 BMatP= 5.64D-01
 IDIUse=3 WtCom= 8.93D-01 WtEn= 1.07D-01
 Coeff-Com:  0.172D+00 0.828D+00
 Coeff-En:   0.242D+00 0.758D+00
 Coeff:      0.180D+00 0.820D+00
 Gap=     0.310 Goal=   None    Shift=    0.000
 RMSDP=2.70D-02 MaxDP=3.17D+00 DE=-1.85D-01 OVMax= 1.37D-01

 Cycle   3  Pass 1  IDiag  1:
 RMSU=  9.19D-03    CP:  9.52D-01  5.43D-01
 E= -1027.69610709692     Delta-E=       -0.289859585279 Rises=F Damp=F
 DIIS: error= 1.12D-02 at cycle   3 NSaved=   3.
 NSaved= 3 IEnMin= 3 EnMin= -1027.69610709692     IErMin= 2 ErrMin= 1.07D-02
 ErrMax= 1.12D-02  0.00D+00 EMaxC= 1.00D-01 BMatC= 4.39D-02 BMatP= 6.36D-02
 IDIUse=3 WtCom= 8.88D-01 WtEn= 1.12D-01
 Coeff-Com:  0.419D-01 0.449D+00 0.509D+00
 Coeff-En:   0.000D+00 0.000D+00 0.100D+01
 Coeff:      0.372D-01 0.399D+00 0.564D+00
 Gap=     0.309 Goal=   None    Shift=    0.000
 RMSDP=4.16D-03 MaxDP=3.71D-01 DE=-2.90D-01 OVMax= 4.33D-02

 Cycle   4  Pass 1  IDiag  1:
 RMSU=  2.73D-03    CP:  9.93D-01  5.93D-01  9.24D-01
 E= -1027.73137097182     Delta-E=       -0.035263874903 Rises=F Damp=F
 DIIS: error= 3.48D-03 at cycle   4 NSaved=   4.
 NSaved= 4 IEnMin= 4 EnMin= -1027.73137097182     IErMin= 4 ErrMin= 3.48D-03
 ErrMax= 3.48D-03  0.00D+00 EMaxC= 1.00D-01 BMatC= 4.57D-03 BMatP= 4.39D-02
 IDIUse=3 WtCom= 9.65D-01 WtEn= 3.48D-02
 Coeff-Com:  0.882D-02 0.223D-01 0.244D+00 0.725D+00
 Coeff-En:   0.000D+00 0.000D+00 0.451D-01 0.955D+00
 Coeff:      0.851D-02 0.215D-01 0.237D+00 0.733D+00
 Gap=     0.308 Goal=   None    Shift=    0.000
 RMSDP=1.69D-03 MaxDP=1.93D-01 DE=-3.53D-02 OVMax= 1.08D-02

 Cycle   5  Pass 1  IDiag  1:
 RMSU=  7.72D-04    CP:  9.78D-01  5.56D-01  9.57D-01  7.72D-01
 E= -1027.73494456088     Delta-E=       -0.003573589056 Rises=F Damp=F
 DIIS: error= 6.30D-04 at cycle   5 NSaved=   5.
 NSaved= 5 IEnMin= 5 EnMin= -1027.73494456088     IErMin= 5 ErrMin= 6.30D-04
 ErrMax= 6.30D-04  0.00D+00 EMaxC= 1.00D-01 BMatC= 1.98D-04 BMatP= 4.57D-03
 IDIUse=3 WtCom= 9.94D-01 WtEn= 6.30D-03
 Coeff-Com:  0.341D-02-0.129D-01 0.895D-01 0.354D+00 0.566D+00
 Coeff-En:   0.000D+00 0.000D+00 0.000D+00 0.000D+00 0.100D+01
 Coeff:      0.339D-02-0.129D-01 0.890D-01 0.351D+00 0.569D+00
 Gap=     0.305 Goal=   None    Shift=    0.000
 RMSDP=3.01D-04 MaxDP=2.98D-02 DE=-3.57D-03 OVMax= 2.82D-03

 Cycle   6  Pass 1  IDiag  1:
 RMSU=  1.83D-04    CP:  9.75D-01  5.51D-01  9.61D-01  7.74D-01  8.96D-01
 E= -1027.73512103062     Delta-E=       -0.000176469744 Rises=F Damp=F
 DIIS: error= 1.37D-04 at cycle   6 NSaved=   6.
 NSaved= 6 IEnMin= 6 EnMin= -1027.73512103062     IErMin= 6 ErrMin= 1.37D-04
 ErrMax= 1.37D-04  0.00D+00 EMaxC= 1.00D-01 BMatC= 1.08D-05 BMatP= 1.98D-04
 IDIUse=3 WtCom= 9.99D-01 WtEn= 1.37D-03
 Coeff-Com:  0.150D-02-0.746D-02 0.161D-01 0.688D-01 0.207D+00 0.714D+00
 Coeff-En:   0.000D+00 0.000D+00 0.000D+00 0.000D+00 0.000D+00 0.100D+01
 Coeff:      0.150D-02-0.745D-02 0.161D-01 0.687D-01 0.206D+00 0.715D+00
 Gap=     0.305 Goal=   None    Shift=    0.000
 RMSDP=1.32D-04 MaxDP=1.77D-02 DE=-1.76D-04 OVMax= 7.78D-04

 Cycle   7  Pass 1  IDiag  1:
 RMSU=  6.05D-05    CP:  9.74D-01  5.48D-01  9.62D-01  7.72D-01  9.02D-01
                    CP:  1.20D+00
 E= -1027.73512883869     Delta-E=       -0.000007808066 Rises=F Damp=F
 DIIS: error= 1.03D-04 at cycle   7 NSaved=   7.
 NSaved= 7 IEnMin= 7 EnMin= -1027.73512883869     IErMin= 7 ErrMin= 1.03D-04
 ErrMax= 1.03D-04  0.00D+00 EMaxC= 1.00D-01 BMatC= 2.59D-06 BMatP= 1.08D-05
 IDIUse=3 WtCom= 9.99D-01 WtEn= 1.03D-03
 Coeff-Com:  0.624D-03-0.283D-02-0.244D-02-0.996D-02 0.462D-01 0.400D+00
 Coeff-Com:  0.569D+00
 Coeff-En:   0.000D+00 0.000D+00 0.000D+00 0.000D+00 0.000D+00 0.000D+00
 Coeff-En:   0.100D+01
 Coeff:      0.624D-03-0.283D-02-0.244D-02-0.995D-02 0.461D-01 0.399D+00
 Coeff:      0.569D+00
 Gap=     0.305 Goal=   None    Shift=    0.000
 RMSDP=3.29D-05 MaxDP=1.91D-03 DE=-7.81D-06 OVMax= 3.79D-04

 Cycle   8  Pass 1  IDiag  1:
 RMSU=  2.69D-05    CP:  9.74D-01  5.47D-01  9.61D-01  7.74D-01  9.08D-01
                    CP:  1.22D+00  9.91D-01
 E= -1027.73513085533     Delta-E=       -0.000002016636 Rises=F Damp=F
 DIIS: error= 4.06D-05 at cycle   8 NSaved=   8.
 NSaved= 8 IEnMin= 8 EnMin= -1027.73513085533     IErMin= 8 ErrMin= 4.06D-05
 ErrMax= 4.06D-05  0.00D+00 EMaxC= 1.00D-01 BMatC= 3.49D-07 BMatP= 2.59D-06
 IDIUse=1 WtCom= 1.00D+00 WtEn= 0.00D+00
 Coeff-Com:  0.164D-03-0.350D-03-0.360D-02-0.169D-01-0.756D-02 0.863D-01
 Coeff-Com:  0.303D+00 0.639D+00
 Coeff:      0.164D-03-0.350D-03-0.360D-02-0.169D-01-0.756D-02 0.863D-01
 Coeff:      0.303D+00 0.639D+00
 Gap=     0.305 Goal=   None    Shift=    0.000
 RMSDP=1.63D-05 MaxDP=1.63D-03 DE=-2.02D-06 OVMax= 1.83D-04

 Cycle   9  Pass 1  IDiag  1:
 RMSU=  7.28D-06    CP:  9.74D-01  5.46D-01  9.61D-01  7.73D-01  9.16D-01
                    CP:  1.23D+00  1.07D+00  1.06D+00
 E= -1027.73513114576     Delta-E=       -0.000000290435 Rises=F Damp=F
 DIIS: error= 7.32D-06 at cycle   9 NSaved=   9.
 NSaved= 9 IEnMin= 9 EnMin= -1027.73513114576     IErMin= 9 ErrMin= 7.32D-06
 ErrMax= 7.32D-06  0.00D+00 EMaxC= 1.00D-01 BMatC= 2.89D-08 BMatP= 3.49D-07
 IDIUse=1 WtCom= 1.00D+00 WtEn= 0.00D+00
 Coeff-Com: -0.173D-04 0.241D-03-0.829D-03-0.479D-02-0.921D-02-0.343D-01
 Coeff-Com:  0.317D-01 0.264D+00 0.754D+00
 Coeff:     -0.173D-04 0.241D-03-0.829D-03-0.479D-02-0.921D-02-0.343D-01
 Coeff:      0.317D-01 0.264D+00 0.754D+00
 Gap=     0.305 Goal=   None    Shift=    0.000
 RMSDP=6.73D-06 MaxDP=5.90D-04 DE=-2.90D-07 OVMax= 4.97D-05

 Cycle  10  Pass 1  IDiag  1:
 RMSU=  3.18D-06    CP:  9.73D-01  5.46D-01  9.61D-01  7.72D-01  9.18D-01
                    CP:  1.24D+00  1.08D+00  1.06D+00  8.44D-01
 E= -1027.73513117606     Delta-E=       -0.000000030295 Rises=F Damp=F
 DIIS: error= 1.47D-06 at cycle  10 NSaved=  10.
 NSaved=10 IEnMin=10 EnMin= -1027.73513117606     IErMin=10 ErrMin= 1.47D-06
 ErrMax= 1.47D-06  0.00D+00 EMaxC= 1.00D-01 BMatC= 9.56D-10 BMatP= 2.89D-08
 IDIUse=1 WtCom= 1.00D+00 WtEn= 0.00D+00
 Coeff-Com: -0.123D-04 0.908D-04-0.821D-04-0.759D-03-0.246D-02-0.153D-01
 Coeff-Com: -0.945D-03 0.551D-01 0.242D+00 0.722D+00
 Coeff:     -0.123D-04 0.908D-04-0.821D-04-0.759D-03-0.246D-02-0.153D-01
 Coeff:     -0.945D-03 0.551D-01 0.242D+00 0.722D+00
 Gap=     0.305 Goal=   None    Shift=    0.000
 RMSDP=1.02D-06 MaxDP=1.07D-04 DE=-3.03D-08 OVMax= 9.18D-06

 Cycle  11  Pass 1  IDiag  1:
 RMSU=  7.07D-07    CP:  9.73D-01  5.46D-01  9.61D-01  7.72D-01  9.18D-01
                    CP:  1.24D+00  1.09D+00  1.07D+00  8.63D-01  9.43D-01
 E= -1027.73513117677     Delta-E=       -0.000000000710 Rises=F Damp=F
 DIIS: error= 8.66D-07 at cycle  11 NSaved=  11.
 NSaved=11 IEnMin=11 EnMin= -1027.73513117677     IErMin=11 ErrMin= 8.66D-07
 ErrMax= 8.66D-07  0.00D+00 EMaxC= 1.00D-01 BMatC= 4.16D-10 BMatP= 9.56D-10
 IDIUse=1 WtCom= 1.00D+00 WtEn= 0.00D+00
 Coeff-Com: -0.453D-05 0.179D-04 0.779D-04 0.257D-03-0.506D-04-0.376D-02
 Coeff-Com: -0.479D-02-0.746D-02 0.275D-01 0.427D+00 0.561D+00
 Coeff:     -0.453D-05 0.179D-04 0.779D-04 0.257D-03-0.506D-04-0.376D-02
 Coeff:     -0.479D-02-0.746D-02 0.275D-01 0.427D+00 0.561D+00
 Gap=     0.305 Goal=   None    Shift=    0.000
 RMSDP=5.31D-07 MaxDP=4.12D-05 DE=-7.10D-10 OVMax= 5.20D-06

 Cycle  12  Pass 1  IDiag  1:
 RMSU=  3.95D-07    CP:  9.73D-01  5.46D-01  9.61D-01  7.72D-01  9.17D-01
                    CP:  1.24D+00  1.09D+00  1.07D+00  8.53D-01  9.54D-01
                    CP:  8.29D-01
 E= -1027.73513117706     Delta-E=       -0.000000000291 Rises=F Damp=F
 DIIS: error= 2.30D-07 at cycle  12 NSaved=  12.
 NSaved=12 IEnMin=12 EnMin= -1027.73513117706     IErMin=12 ErrMin= 2.30D-07
 ErrMax= 2.30D-07  0.00D+00 EMaxC= 1.00D-01 BMatC= 4.02D-11 BMatP= 4.16D-10
 IDIUse=1 WtCom= 1.00D+00 WtEn= 0.00D+00
 Coeff-Com: -0.127D-05 0.139D-05 0.514D-04 0.208D-03 0.202D-03-0.633D-03
 Coeff-Com: -0.266D-02-0.924D-02-0.814D-02 0.162D+00 0.310D+00 0.547D+00
 Coeff:     -0.127D-05 0.139D-05 0.514D-04 0.208D-03 0.202D-03-0.633D-03
 Coeff:     -0.266D-02-0.924D-02-0.814D-02 0.162D+00 0.310D+00 0.547D+00
 Gap=     0.305 Goal=   None    Shift=    0.000
 RMSDP=1.50D-07 MaxDP=2.36D-05 DE=-2.91D-10 OVMax= 1.29D-06

 Cycle  13  Pass 1  IDiag  1:
 RMSU=  8.32D-08    CP:  9.73D-01  5.46D-01  9.61D-01  7.72D-01  9.17D-01
                    CP:  1.24D+00  1.09D+00  1.07D+00  8.54D-01  9.73D-01
                    CP:  8.39D-01  8.67D-01
 E= -1027.73513117712     Delta-E=       -0.000000000067 Rises=F Damp=F
 DIIS: error= 6.24D-08 at cycle  13 NSaved=  13.
 NSaved=13 IEnMin=13 EnMin= -1027.73513117712     IErMin=13 ErrMin= 6.24D-08
 ErrMax= 6.24D-08  0.00D+00 EMaxC= 1.00D-01 BMatC= 2.02D-12 BMatP= 4.02D-11
 IDIUse=1 WtCom= 1.00D+00 WtEn= 0.00D+00
 Coeff-Com:  0.231D-06-0.185D-05 0.115D-04 0.472D-04 0.905D-04 0.253D-03
 Coeff-Com: -0.473D-03-0.271D-02-0.697D-02 0.828D-02 0.498D-01 0.199D+00
 Coeff-Com:  0.752D+00
 Coeff:      0.231D-06-0.185D-05 0.115D-04 0.472D-04 0.905D-04 0.253D-03
 Coeff:     -0.473D-03-0.271D-02-0.697D-02 0.828D-02 0.498D-01 0.199D+00
 Coeff:      0.752D+00
 Gap=     0.305 Goal=   None    Shift=    0.000
 RMSDP=4.25D-08 MaxDP=3.38D-06 DE=-6.73D-11 OVMax= 4.01D-07

 Cycle  14  Pass 1  IDiag  1:
 RMSU=  3.28D-08    CP:  9.73D-01  5.46D-01  9.61D-01  7.72D-01  9.17D-01
                    CP:  1.24D+00  1.09D+00  1.07D+00  8.55D-01  9.72D-01
                    CP:  8.39D-01  9.07D-01  9.81D-01
 E= -1027.73513117712     Delta-E=       -0.000000000001 Rises=F Damp=F
 DIIS: error= 2.20D-08 at cycle  14 NSaved=  14.
 NSaved=14 IEnMin=14 EnMin= -1027.73513117712     IErMin=14 ErrMin= 2.20D-08
 ErrMax= 2.20D-08  0.00D+00 EMaxC= 1.00D-01 BMatC= 2.80D-13 BMatP= 2.02D-12
 IDIUse=1 WtCom= 1.00D+00 WtEn= 0.00D+00
 Coeff-Com:  0.222D-06-0.962D-06 0.204D-05 0.724D-05 0.285D-04 0.151D-03
 Coeff-Com: -0.297D-04-0.638D-03-0.256D-02-0.820D-02 0.940D-03 0.499D-01
 Coeff-Com:  0.353D+00 0.608D+00
 Coeff:      0.222D-06-0.962D-06 0.204D-05 0.724D-05 0.285D-04 0.151D-03
 Coeff:     -0.297D-04-0.638D-03-0.256D-02-0.820D-02 0.940D-03 0.499D-01
 Coeff:      0.353D+00 0.608D+00
 Gap=     0.305 Goal=   None    Shift=    0.000
 RMSDP=1.58D-08 MaxDP=1.68D-06 DE=-1.36D-12 OVMax= 1.08D-07

 Cycle  15  Pass 1  IDiag  1:
 RMSU=  8.80D-09    CP:  9.73D-01  5.46D-01  9.61D-01  7.72D-01  9.17D-01
                    CP:  1.24D+00  1.09D+00  1.07D+00  8.54D-01  9.74D-01
                    CP:  8.39D-01  9.11D-01  1.05D+00  9.04D-01
 E= -1027.73513117711     Delta-E=        0.000000000011 Rises=F Damp=F
 DIIS: error= 5.79D-09 at cycle  15 NSaved=  15.
 NSaved=15 IEnMin=14 EnMin= -1027.73513117712     IErMin=15 ErrMin= 5.79D-09
 ErrMax= 5.79D-09  0.00D+00 EMaxC= 1.00D-01 BMatC= 1.91D-14 BMatP= 2.80D-13
 IDIUse=1 WtCom= 1.00D+00 WtEn= 0.00D+00
 Coeff-Com:  0.566D-07-0.121D-06-0.628D-06-0.337D-05-0.337D-06 0.213D-04
 Coeff-Com:  0.547D-04 0.658D-04-0.604D-04-0.391D-02-0.521D-02-0.659D-02
 Coeff-Com:  0.357D-01 0.221D+00 0.759D+00
 Coeff:      0.566D-07-0.121D-06-0.628D-06-0.337D-05-0.337D-06 0.213D-04
 Coeff:      0.547D-04 0.658D-04-0.604D-04-0.391D-02-0.521D-02-0.659D-02
 Coeff:      0.357D-01 0.221D+00 0.759D+00
 Gap=     0.305 Goal=   None    Shift=    0.000
 RMSDP=5.55D-09 MaxDP=2.80D-07 DE= 1.14D-11 OVMax= 4.53D-08

 SCF Done:  E(RBMK) =  -1027.73513118     A.U. after   15 cycles
            NFock= 15  Conv=0.56D-08     -V/T= 2.0044
 KE= 1.023206106936D+03 PE=-5.868748608214D+03 EE= 2.082694459253D+03
 Leave Link  502 at Tue Apr  4 14:01:24 2023, MaxMem=    33554432 cpu:       689.5
 (Enter /hits/basement/its/doserbd/software/gaussian/g09d1/g09/l801.exe)
 DoSCS=F DFT=T ScalE2(SS,OS)=  1.000000  1.000000
 Range of M.O.s used for correlation:     1   317
 NBasis=   317 NAE=    80 NBE=    80 NFC=     0 NFV=     0
 NROrb=    317 NOA=    80 NOB=    80 NVA=   237 NVB=   237

 **** Warning!!: The largest alpha MO coefficient is  0.87093838D+02

 Leave Link  801 at Tue Apr  4 14:01:24 2023, MaxMem=    33554432 cpu:         0.2
 (Enter /hits/basement/its/doserbd/software/gaussian/g09d1/g09/l1101.exe)
 Using compressed storage, NAtomX=    43.
 Will process     44 centers per pass.
 PrsmSu:  requested number of processors reduced to:   3 ShMem   1 Linda.
 Leave Link 1101 at Tue Apr  4 14:01:25 2023, MaxMem=    33554432 cpu:         2.2
 (Enter /hits/basement/its/doserbd/software/gaussian/g09d1/g09/l1102.exe)
 Symmetrizing basis deriv contribution to polar:
 IMax=3 JMax=2 DiffMx= 0.00D+00
 Leave Link 1102 at Tue Apr  4 14:01:25 2023, MaxMem=    33554432 cpu:         0.5
 (Enter /hits/basement/its/doserbd/software/gaussian/g09d1/g09/l1110.exe)
 Forming Gx(P) for the SCF density, NAtomX=    43.
 Integral derivatives from FoFJK, PRISM(SPDF).
 Do as many integral derivatives as possible in FoFJK.
 G2DrvN: MDV=      33553984.
 G2DrvN: will do    11 centers at a time, making    4 passes.
 G2DrvN:  IPasSy=1 do centers    0 through   10.
 Calling FoFCou, ICntrl=  3107 FMM=F I1Cent=   0 AccDes= 0.00D+00.
 FoFJK:  IHMeth= 1 ICntrl=    3107 DoSepK=F KAlg= 0 I1Cent=   0 FoldK=F
 IRaf=         0 NMat=   1 IRICut=       1 DoRegI=T DoRafI=F ISym2E= 0.
 FoFCou: FMM=F IPFlag=           0 FMFlag=      100000 FMFlg1=           0
         NFxFlg=           0 DoJE=F BraDBF=F KetDBF=F FulRan=T
         wScrn=  0.000000 ICntrl=    3107 IOpCl=  0 I1Cent=           0 NGrid=           0
         NMat0=    1 NMatS0=      1 NMatT0=    0 NMatD0=    1 NMtDS0=    0 NMtDT0=    0
 Symmetry not used in FoFCou.
 G2DrvN:  IPasSy=1 do centers   11 through   21.
 Calling FoFCou, ICntrl=  3107 FMM=F I1Cent=   0 AccDes= 0.00D+00.
 G2DrvN:  IPasSy=1 do centers   22 through   32.
 Calling FoFCou, ICntrl=  3107 FMM=F I1Cent=   0 AccDes= 0.00D+00.
 G2DrvN:  IPasSy=1 do centers   33 through   43.
 Calling FoFCou, ICntrl=  3107 FMM=F I1Cent=   0 AccDes= 0.00D+00.
 End of G2Drv F.D. properties file   721 does not exist.
 End of G2Drv F.D. properties file   722 does not exist.
 End of G2Drv F.D. properties file   788 does not exist.
 Leave Link 1110 at Tue Apr  4 14:06:28 2023, MaxMem=    33554432 cpu:      2427.4
 (Enter /hits/basement/its/doserbd/software/gaussian/g09d1/g09/l1002.exe)
 Minotr:  Closed shell wavefunction.
          IDoAtm=1111111111111111111111111111111111111111111
          Direct CPHF calculation.
          Differentiating once with respect to nuclear coordinates.
          Requested convergence is 1.0D-08 RMS, and 1.0D-07 maximum.
          Secondary convergence is 1.0D-12 RMS, and 1.0D-12 maximum.
          NewPWx=T KeepS1=F KeepF1=F KeepIn=T MapXYZ=F SortEE=F KeepMc=T.
          MDV=      33553681 using IRadAn=       2.
 Generate precomputed XC quadrature information.
          Solving linear equations simultaneously, MaxMat=       0.
 FoFJK:  IHMeth= 1 ICntrl=       0 DoSepK=F KAlg= 0 I1Cent=   0 FoldK=F
 IRaf= 780000000 NMat=  48 IRICut=     120 DoRegI=T DoRafI=T ISym2E= 2.
 FoFCou: FMM=F IPFlag=           0 FMFlag=      100000 FMFlg1=           0
         NFxFlg=           0 DoJE=F BraDBF=F KetDBF=F FulRan=T
         wScrn=  0.000000 ICntrl=       0 IOpCl=  0 I1Cent=           0 NGrid=           0
         NMat0=   48 NMatS0=     48 NMatT0=    0 NMatD0=   48 NMtDS0=    0 NMtDT0=    0
 Integrals replicated using symmetry in FoFCou.
 PrRfSu:  requested number of processors reduced to:   6 ShMem   1 Linda.
 CalDSu:  requested number of processors reduced to:   7 ShMem   1 Linda.
 PrRfSu:  requested number of processors reduced to:   6 ShMem   1 Linda.
 CalDSu:  requested number of processors reduced to:   7 ShMem   1 Linda.
          There are   132 degrees of freedom in the 1st order CPHF.  IDoFFX=6 NUNeed=     0.
    129 vectors produced by pass  0 Test12= 1.90D-14 1.00D-09 XBig12= 1.86D-01 7.13D-02.
 AX will form    48 AO Fock derivatives at one time.
 PrRfSu:  requested number of processors reduced to:   6 ShMem   1 Linda.
 CalDSu:  requested number of processors reduced to:   7 ShMem   1 Linda.
 PrRfSu:  requested number of processors reduced to:   6 ShMem   1 Linda.
 CalDSu:  requested number of processors reduced to:   7 ShMem   1 Linda.
    129 vectors produced by pass  1 Test12= 1.90D-14 1.00D-09 XBig12= 5.22D-03 1.99D-02.
 PrRfSu:  requested number of processors reduced to:   6 ShMem   1 Linda.
 CalDSu:  requested number of processors reduced to:   7 ShMem   1 Linda.
 PrRfSu:  requested number of processors reduced to:   6 ShMem   1 Linda.
 CalDSu:  requested number of processors reduced to:   7 ShMem   1 Linda.
    126 vectors produced by pass  2 Test12= 1.90D-14 1.00D-09 XBig12= 7.08D-05 1.10D-03.
 PrRfSu:  requested number of processors reduced to:   6 ShMem   1 Linda.
 CalDSu:  requested number of processors reduced to:   7 ShMem   1 Linda.
 PrRfSu:  requested number of processors reduced to:   6 ShMem   1 Linda.
 CalDSu:  requested number of processors reduced to:   7 ShMem   1 Linda.
    126 vectors produced by pass  3 Test12= 1.90D-14 1.00D-09 XBig12= 2.28D-07 6.29D-05.
 PrRfSu:  requested number of processors reduced to:   6 ShMem   1 Linda.
 CalDSu:  requested number of processors reduced to:   7 ShMem   1 Linda.
 PrRfSu:  requested number of processors reduced to:   6 ShMem   1 Linda.
 CalDSu:  requested number of processors reduced to:   7 ShMem   1 Linda.
    126 vectors produced by pass  4 Test12= 1.90D-14 1.00D-09 XBig12= 6.31D-10 2.99D-06.
 PrRfSu:  requested number of processors reduced to:   6 ShMem   1 Linda.
 CalDSu:  requested number of processors reduced to:   7 ShMem   1 Linda.
 PrRfSu:  requested number of processors reduced to:   6 ShMem   1 Linda.
 CalDSu:  requested number of processors reduced to:   7 ShMem   1 Linda.
    126 vectors produced by pass  5 Test12= 1.90D-14 1.00D-09 XBig12= 2.56D-12 1.54D-07.
 PrRfSu:  requested number of processors reduced to:   6 ShMem   1 Linda.
 CalDSu:  requested number of processors reduced to:   7 ShMem   1 Linda.
 PrRfSu:  requested number of processors reduced to:   6 ShMem   1 Linda.
 CalDSu:  requested number of processors reduced to:   7 ShMem   1 Linda.
    121 vectors produced by pass  6 Test12= 1.90D-14 1.00D-09 XBig12= 4.51D-14 1.68D-08.
 PrRfSu:  requested number of processors reduced to:   6 ShMem   1 Linda.
 CalDSu:  requested number of processors reduced to:   7 ShMem   1 Linda.
 PrRfSu:  requested number of processors reduced to:   6 ShMem   1 Linda.
 CalDSu:  requested number of processors reduced to:   7 ShMem   1 Linda.
     88 vectors produced by pass  7 Test12= 1.90D-14 1.00D-09 XBig12= 6.19D-15 4.88D-09.
 PrRfSu:  requested number of processors reduced to:   6 ShMem   1 Linda.
 CalDSu:  requested number of processors reduced to:   7 ShMem   1 Linda.
     47 vectors produced by pass  8 Test12= 1.90D-14 1.00D-09 XBig12= 7.32D-15 5.22D-09.
 PrRfSu:  requested number of processors reduced to:   6 ShMem   1 Linda.
 CalDSu:  requested number of processors reduced to:   7 ShMem   1 Linda.
      6 vectors produced by pass  9 Test12= 1.90D-14 1.00D-09 XBig12= 3.50D-16 1.37D-09.
      6 vectors produced by pass 10 Test12= 1.90D-14 1.00D-09 XBig12= 4.48D-15 4.13D-09.
      6 vectors produced by pass 11 Test12= 1.90D-14 1.00D-09 XBig12= 9.14D-15 5.37D-09.
      6 vectors produced by pass 12 Test12= 1.90D-14 1.00D-09 XBig12= 7.47D-15 4.73D-09.
      6 vectors produced by pass 13 Test12= 1.90D-14 1.00D-09 XBig12= 9.08D-15 6.08D-09.
      6 vectors produced by pass 14 Test12= 1.90D-14 1.00D-09 XBig12= 7.71D-15 4.39D-09.
      6 vectors produced by pass 15 Test12= 1.90D-14 1.00D-09 XBig12= 1.03D-14 6.27D-09.
      6 vectors produced by pass 16 Test12= 1.90D-14 1.00D-09 XBig12= 1.63D-14 7.43D-09.
      6 vectors produced by pass 17 Test12= 1.90D-14 1.00D-09 XBig12= 6.83D-15 4.40D-09.
      6 vectors produced by pass 18 Test12= 1.90D-14 1.00D-09 XBig12= 8.29D-15 4.68D-09.
      6 vectors produced by pass 19 Test12= 1.90D-14 1.00D-09 XBig12= 1.10D-14 5.41D-09.
      6 vectors produced by pass 20 Test12= 1.90D-14 1.00D-09 XBig12= 6.16D-15 5.47D-09.
      6 vectors produced by pass 21 Test12= 1.90D-14 1.00D-09 XBig12= 4.97D-15 3.50D-09.
      6 vectors produced by pass 22 Test12= 1.90D-14 1.00D-09 XBig12= 3.09D-15 3.21D-09.
      6 vectors produced by pass 23 Test12= 1.90D-14 1.00D-09 XBig12= 1.45D-15 2.26D-09.
      6 vectors produced by pass 24 Test12= 1.90D-14 1.00D-09 XBig12= 4.69D-15 3.76D-09.
      6 vectors produced by pass 25 Test12= 1.90D-14 1.00D-09 XBig12= 6.60D-15 4.55D-09.
      6 vectors produced by pass 26 Test12= 1.90D-14 1.00D-09 XBig12= 6.76D-15 5.14D-09.
      6 vectors produced by pass 27 Test12= 1.90D-14 1.00D-09 XBig12= 5.38D-15 3.83D-09.
      6 vectors produced by pass 28 Test12= 1.90D-14 1.00D-09 XBig12= 2.36D-15 2.81D-09.
      6 vectors produced by pass 29 Test12= 1.90D-14 1.00D-09 XBig12= 6.07D-15 4.59D-09.
      6 vectors produced by pass 30 Test12= 1.90D-14 1.00D-09 XBig12= 2.54D-15 2.79D-09.
      6 vectors produced by pass 31 Test12= 1.90D-14 1.00D-09 XBig12= 3.34D-15 2.93D-09.
      6 vectors produced by pass 32 Test12= 1.90D-14 1.00D-09 XBig12= 3.51D-15 3.00D-09.
      6 vectors produced by pass 33 Test12= 1.90D-14 1.00D-09 XBig12= 6.03D-15 3.83D-09.
      6 vectors produced by pass 34 Test12= 1.90D-14 1.00D-09 XBig12= 2.16D-15 2.74D-09.
      6 vectors produced by pass 35 Test12= 1.90D-14 1.00D-09 XBig12= 3.92D-15 3.50D-09.
      6 vectors produced by pass 36 Test12= 1.90D-14 1.00D-09 XBig12= 5.41D-15 4.18D-09.
      6 vectors produced by pass 37 Test12= 1.90D-14 1.00D-09 XBig12= 4.00D-15 3.62D-09.
      6 vectors produced by pass 38 Test12= 1.90D-14 1.00D-09 XBig12= 1.56D-15 2.02D-09.
      6 vectors produced by pass 39 Test12= 1.90D-14 1.00D-09 XBig12= 4.81D-15 3.65D-09.
      6 vectors produced by pass 40 Test12= 1.90D-14 1.00D-09 XBig12= 1.68D-15 2.31D-09.
      6 vectors produced by pass 41 Test12= 1.90D-14 1.00D-09 XBig12= 2.57D-15 2.74D-09.
      6 vectors produced by pass 42 Test12= 1.90D-14 1.00D-09 XBig12= 3.11D-15 3.28D-09.
      6 vectors produced by pass 43 Test12= 1.90D-14 1.00D-09 XBig12= 8.47D-16 1.43D-09.
      5 vectors produced by pass 44 Test12= 1.90D-14 1.00D-09 XBig12= 6.61D-16 1.36D-09.
      5 vectors produced by pass 45 Test12= 1.90D-14 1.00D-09 XBig12= 1.01D-15 1.71D-09.
      5 vectors produced by pass 46 Test12= 1.90D-14 1.00D-09 XBig12= 2.31D-15 2.41D-09.
      5 vectors produced by pass 47 Test12= 1.90D-14 1.00D-09 XBig12= 9.15D-16 1.45D-09.
      5 vectors produced by pass 48 Test12= 1.90D-14 1.00D-09 XBig12= 2.13D-15 2.70D-09.
      5 vectors produced by pass 49 Test12= 1.90D-14 1.00D-09 XBig12= 2.45D-15 2.37D-09.
      5 vectors produced by pass 50 Test12= 1.90D-14 1.00D-09 XBig12= 1.55D-15 2.08D-09.
      5 vectors produced by pass 51 Test12= 1.90D-14 1.00D-09 XBig12= 1.14D-15 1.69D-09.
      5 vectors produced by pass 52 Test12= 1.90D-14 1.00D-09 XBig12= 1.49D-15 2.39D-09.
      5 vectors produced by pass 53 Test12= 1.90D-14 1.00D-09 XBig12= 1.66D-15 2.10D-09.
      5 vectors produced by pass 54 Test12= 1.90D-14 1.00D-09 XBig12= 1.70D-15 2.48D-09.
[...]
     5  C    0.000053  -0.000023  -0.014178  -0.000021  -0.000031   0.007122
     6  O    0.000000   0.000000   0.000526   0.000000   0.000000  -0.000899
     7  N   -0.000019  -0.000012  -0.001252  -0.000012  -0.000004  -0.024742
     8  H    0.000000   0.000000  -0.000566   0.000000   0.000000   0.006376
     9  C   -0.000068  -0.001111  -0.158034  -0.000936  -0.006994  -0.029749
    10  H    0.000003  -0.000002   0.001808   0.000000   0.000000   0.008790
    11  H   -0.000001  -0.000002  -0.010227   0.000000   0.000003   0.005932
    12  C    0.005513  -0.008386   0.264748  -0.013462   0.029231  -0.799574
    13  O    0.000028  -0.000008   0.025264   0.000025   0.000069  -0.089220
    14  N    0.024871  -0.007528  -0.061199  -0.006460   0.032616  -0.233474
    15  C   -0.085612  -0.000655  -0.317640   0.044540   0.017780   0.452913
    16  H   -0.005275   0.001557   0.046586  -0.000119  -0.000122  -0.004301
    17  H    0.003236  -0.004176  -0.015678  -0.000122   0.001047  -0.004283
    18  C    0.454838   0.322339  -0.280963  -0.051051  -0.083452  -0.390968
    19  H    0.459293  -0.023661  -0.082207  -0.003872   0.003766  -0.016664
    20  H   -0.023661   0.517773  -0.024364   0.000357  -0.004304   0.020488
    21  C   -0.082207  -0.024364   7.783392   0.404140   0.439015  -1.769320
    22  H   -0.003872   0.000357   0.404140   0.472977  -0.026281  -0.068511
    23  H    0.003766  -0.004304   0.439015  -0.026281   0.527644  -0.109923
    24  C   -0.016664   0.020488  -1.769320  -0.068511  -0.109923  12.496066
    25  H   -0.000065  -0.000141  -0.081817   0.000337  -0.003050   0.407977
    26  C    0.004325   0.007642   0.152055   0.013797  -0.023570  -2.510014
    27  O    0.003173  -0.000245   0.063473  -0.006815   0.002707  -0.124907
    28  N    0.002050  -0.000026   0.153104   0.001289   0.001207  -0.983895
    29  H   -0.000002   0.000000  -0.000078  -0.000008  -0.000001  -0.005197
    30  C   -0.001311  -0.000108   0.099780  -0.000242  -0.001079  -0.074511
    31  H    0.000000   0.000000  -0.001582  -0.000001   0.000000  -0.010955
    32  C    0.001271   0.000143   0.003257  -0.000049   0.000226  -0.122048
    33  H    0.000000   0.000000  -0.000320   0.000000   0.000000   0.001110
    34  H    0.000003   0.000000  -0.001899   0.000000   0.000000  -0.008365
    35  H    0.000000   0.000000  -0.000236   0.000000   0.000000   0.004159
    36  C    0.000132  -0.000024  -0.127451  -0.000739   0.000008   0.232326
    37  O    0.000000   0.000000   0.000579   0.000005   0.000000  -0.011076
    38  N    0.000000   0.000000  -0.002583   0.000000   0.000000  -0.009288
    39  H    0.000000   0.000000   0.000042   0.000000   0.000000   0.000308
    40  C    0.000000   0.000000  -0.000826  -0.000001   0.000000  -0.002132
    41  H    0.000000   0.000000   0.000000   0.000000   0.000000   0.000001
    42  H    0.000000   0.000000   0.000001   0.000000   0.000000   0.000022
    43  H    0.000000   0.000000  -0.000002   0.000000   0.000000   0.000055
              25         26         27         28         29         30
     1  C    0.000003   0.004580   0.000010   0.000009  -0.000021  -0.000283
     2  H    0.000000   0.000040   0.000000   0.000004   0.000000  -0.000017
     3  H    0.000000  -0.000003   0.000000   0.000000   0.000000   0.000001
     4  H    0.000000   0.000006   0.000000   0.000000   0.000000  -0.000001
     5  C    0.000116   0.004133   0.000198  -0.002599  -0.000030  -0.001194
     6  O    0.000001  -0.000733   0.000000  -0.000029   0.000002   0.000163
     7  N    0.000364  -0.012113   0.000195  -0.000069  -0.000013   0.000790
     8  H    0.000000   0.002216   0.000002   0.000294  -0.000059  -0.000722
     9  C   -0.008388  -0.157564  -0.020045  -0.139895   0.022797   0.147802
    10  H   -0.000016  -0.006025   0.000077  -0.000701  -0.000011   0.000020
    11  H    0.000023   0.009516  -0.000019   0.000324  -0.000006  -0.000068
    12  C    0.035541  -0.847707   0.027688   0.276028  -0.014448  -0.109919
    13  O    0.004194   0.085511  -0.003276  -0.019657   0.030484  -0.016495
    14  N   -0.089980   0.230555   0.044442  -0.100449  -0.016686   0.059457
    15  C   -0.029313  -0.463970  -0.004506   0.005565  -0.006060   0.027050
    16  H   -0.000192  -0.004234   0.000127  -0.001692   0.000000  -0.000514
    17  H    0.000029  -0.002902   0.000054  -0.000005  -0.000001   0.000318
    18  C    0.040265   0.411810  -0.020661  -0.009408   0.000533  -0.006701
    19  H   -0.000065   0.004325   0.003173   0.002050  -0.000002  -0.001311
    20  H   -0.000141   0.007642  -0.000245  -0.000026   0.000000  -0.000108
    21  C   -0.081817   0.152055   0.063473   0.153104  -0.000078   0.099780
    22  H    0.000337   0.013797  -0.006815   0.001289  -0.000008  -0.000242
    23  H   -0.003050  -0.023570   0.002707   0.001207  -0.000001  -0.001079
    24  C    0.407977  -2.510014  -0.124907  -0.983895  -0.005197  -0.074511
    25  H    0.484153  -0.038837   0.003647   0.023260   0.000411  -0.004828
    26  C   -0.038837   9.138143   0.281393  -0.209147   0.033563  -0.919808
    27  O    0.003647   0.281393   8.581697  -0.314656   0.000760   0.083051
    28  N    0.023260  -0.209147  -0.314656   9.051431   0.230208  -1.262282
    29  H    0.000411   0.033563   0.000760   0.230208   0.240530  -0.079391
    30  C   -0.004828  -0.919808   0.083051  -1.262282  -0.079391  18.866326
    31  H   -0.000004   0.066021  -0.001457  -0.037338   0.001636   0.172172
    32  C   -0.000904  -0.221425  -0.070857   0.483082   0.000061  -1.799845
    33  H    0.000000   0.002208   0.000455   0.004727  -0.000023  -0.098598
    34  H   -0.000002  -0.020916   0.005701  -0.017609  -0.000290  -0.033391
    35  H    0.000000   0.024296  -0.001172   0.028579  -0.000048  -0.208211
    36  C    0.005232   0.577697   0.015106   0.031153   0.037791  -5.808432
    37  O    0.000064   0.036730  -0.001367   0.059321   0.016381  -0.187889
    38  N    0.000082   0.012871  -0.001819   0.060674   0.006935  -1.525458
    39  H    0.000000   0.002914   0.000016   0.001361  -0.000027   0.024049
    40  C    0.000072   0.004153  -0.001226   0.019693   0.002288  -0.451442
    41  H    0.000000  -0.000013   0.000000  -0.000024   0.000000  -0.000328
    42  H    0.000000   0.000065   0.000000  -0.000204  -0.000001  -0.002360
    43  H    0.000000   0.000161   0.000001   0.000198   0.000003  -0.007341
              31         32         33         34         35         36
     1  C    0.000001  -0.000344   0.000000   0.000000   0.000031   0.000508
     2  H    0.000000   0.000004   0.000000   0.000000   0.000000   0.000008
     3  H    0.000000  -0.000001   0.000000   0.000000   0.000000  -0.000001
     4  H    0.000000   0.000000   0.000000   0.000000   0.000000   0.000000
     5  C    0.000005  -0.000972  -0.000002   0.000001   0.000127   0.002222
     6  O    0.000000  -0.000076   0.000000   0.000000   0.000000  -0.000051
     7  N   -0.000005   0.001324  -0.000003   0.000006  -0.000043  -0.001557
     8  H    0.000000   0.000181   0.000000   0.000000   0.000000   0.000098
     9  C    0.000661  -0.057204   0.000143  -0.000393   0.002548  -0.018401
    10  H    0.000000  -0.000274   0.000000   0.000000  -0.000002  -0.000305
    11  H    0.000000   0.000166   0.000000   0.000000   0.000000   0.000037
    12  C   -0.005942   0.050849   0.000493   0.003826  -0.011893   0.018686
    13  O   -0.000061   0.003876   0.000006  -0.000025   0.000382   0.022774
    14  N    0.002183  -0.030240   0.000246  -0.001125   0.001110  -0.077313
    15  C    0.000532  -0.010204   0.000175  -0.000547  -0.000302  -0.037746
    16  H    0.000000  -0.000386   0.000000  -0.000002   0.000000  -0.000265
    17  H    0.000000   0.000028   0.000000   0.000000   0.000000  -0.000070
    18  C   -0.000358  -0.004587  -0.000024   0.000149  -0.000134   0.036210
    19  H    0.000000   0.001271   0.000000   0.000003   0.000000   0.000132
    20  H    0.000000   0.000143   0.000000   0.000000   0.000000  -0.000024
    21  C   -0.001582   0.003257  -0.000320  -0.001899  -0.000236  -0.127451
    22  H   -0.000001  -0.000049   0.000000   0.000000   0.000000  -0.000739
    23  H    0.000000   0.000226   0.000000   0.000000   0.000000   0.000008
    24  C   -0.010955  -0.122048   0.001110  -0.008365   0.004159   0.232326
    25  H   -0.000004  -0.000904   0.000000  -0.000002   0.000000   0.005232
    26  C    0.066021  -0.221425   0.002208  -0.020916   0.024296   0.577697
    27  O   -0.001457  -0.070857   0.000455   0.005701  -0.001172   0.015106
    28  N   -0.037338   0.483082   0.004727  -0.017609   0.028579   0.031153
    29  H    0.001636   0.000061  -0.000023  -0.000290  -0.000048   0.037791
    30  C    0.172172  -1.799845  -0.098598  -0.033391  -0.208211  -5.808432
    31  H    0.505501  -0.049914  -0.001116  -0.003836   0.004253   0.089467
    32  C   -0.049914   6.979233   0.393747   0.468031   0.436622  -0.377998
    33  H   -0.001116   0.393747   0.537612  -0.025591  -0.028152   0.005151
    34  H   -0.003836   0.468031  -0.025591   0.475257  -0.025189  -0.048510
    35  H    0.004253   0.436622  -0.028152  -0.025189   0.500602   0.047793
    36  C    0.089467  -0.377998   0.005151  -0.048510   0.047793   9.936649
    37  O    0.001485   0.022613  -0.000772   0.000888   0.002408   0.421208
    38  N    0.024290   0.244966   0.014390  -0.000566   0.002716   0.368671
    39  H    0.000368  -0.027198  -0.000008   0.000020  -0.000004   0.037668
    40  C    0.007918   0.079726   0.004789  -0.000469   0.000190  -0.122199
    41  H   -0.000002  -0.001545  -0.000001   0.000000   0.000000   0.028277
    42  H   -0.000009  -0.000593   0.000005  -0.000001  -0.000003  -0.020170
    43  H    0.000010   0.001215  -0.000001   0.000000   0.000001  -0.025852
              37         38         39         40         41         42
     1  C   -0.000019  -0.000010   0.000000  -0.000011   0.000000   0.000000
     2  H   -0.000001   0.000000   0.000000   0.000000   0.000000   0.000000
     3  H    0.000000   0.000000   0.000000   0.000000   0.000000   0.000000
     4  H    0.000000   0.000000   0.000000   0.000000   0.000000   0.000000
     5  C   -0.000125   0.000008   0.000000   0.000013   0.000000   0.000000
     6  O    0.000000   0.000000   0.000000   0.000000   0.000000   0.000000
     7  N   -0.000125   0.000022   0.000000   0.000007   0.000000   0.000000
     8  H    0.000000   0.000000   0.000000  -0.000002   0.000000   0.000000
     9  C   -0.002166  -0.000690  -0.000006  -0.000556   0.000001  -0.000001
    10  H   -0.000003   0.000000   0.000000  -0.000001   0.000000   0.000000
    11  H    0.000001   0.000000   0.000000   0.000000   0.000000   0.000000
    12  C    0.006343   0.004453  -0.000136   0.001231  -0.000002  -0.000053
    13  O    0.000972   0.000043   0.000002   0.000528   0.000000   0.000000
    14  N   -0.001709  -0.002354   0.000013  -0.001613   0.000000  -0.000001
    15  C   -0.000156  -0.001005   0.000005  -0.000461   0.000000  -0.000001
    16  H    0.000001  -0.000001   0.000000  -0.000001   0.000000   0.000000
    17  H    0.000000   0.000000   0.000000   0.000000   0.000000   0.000000
    18  C   -0.000096   0.000822  -0.000004   0.000282   0.000000   0.000000
    19  H    0.000000   0.000000   0.000000   0.000000   0.000000   0.000000
    20  H    0.000000   0.000000   0.000000   0.000000   0.000000   0.000000
    21  C    0.000579  -0.002583   0.000042  -0.000826   0.000000   0.000001
    22  H    0.000005   0.000000   0.000000  -0.000001   0.000000   0.000000
    23  H    0.000000   0.000000   0.000000   0.000000   0.000000   0.000000
    24  C   -0.011076  -0.009288   0.000308  -0.002132   0.000001   0.000022
    25  H    0.000064   0.000082   0.000000   0.000072   0.000000   0.000000
    26  C    0.036730   0.012871   0.002914   0.004153  -0.000013   0.000065
    27  O   -0.001367  -0.001819   0.000016  -0.001226   0.000000   0.000000
    28  N    0.059321   0.060674   0.001361   0.019693  -0.000024  -0.000204
    29  H    0.016381   0.006935  -0.000027   0.002288   0.000000  -0.000001
    30  C   -0.187889  -1.525458   0.024049  -0.451442  -0.000328  -0.002360
    31  H    0.001485   0.024290   0.000368   0.007918  -0.000002  -0.000009
    32  C    0.022613   0.244966  -0.027198   0.079726  -0.001545  -0.000593
    33  H   -0.000772   0.014390  -0.000008   0.004789  -0.000001   0.000005
    34  H    0.000888  -0.000566   0.000020  -0.000469   0.000000  -0.000001
    35  H    0.002408   0.002716  -0.000004   0.000190   0.000000  -0.000003
    36  C    0.421208   0.368671   0.037668  -0.122199   0.028277  -0.020170
    37  O    8.474679  -0.252943   0.003220  -0.036639   0.001874   0.000676
    38  N   -0.252943   8.205505   0.260461   0.239189  -0.057737  -0.054214
    39  H    0.003220   0.260461   0.330784  -0.028137  -0.004502   0.002243
    40  C   -0.036639   0.239189  -0.028137   5.405454   0.374359   0.420936
    41  H    0.001874  -0.057737  -0.004502   0.374359   0.529486  -0.026305
    42  H    0.000676  -0.054214   0.002243   0.420936  -0.026305   0.487791
    43  H    0.000113  -0.043207   0.002107   0.419594  -0.027708  -0.031948
              43
     1  C    0.000000
     2  H    0.000000
     3  H    0.000000
     4  H    0.000000
     5  C    0.000000
     6  O    0.000000
     7  N    0.000000
     8  H    0.000000
     9  C   -0.000003
    10  H    0.000000
    11  H    0.000000
    12  C    0.000039
    13  O    0.000000
    14  N    0.000000
    15  C    0.000000
    16  H    0.000000
    17  H    0.000000
    18  C    0.000000
    19  H    0.000000
    20  H    0.000000
    21  C   -0.000002
    22  H    0.000000
    23  H    0.000000
    24  C    0.000055
    25  H    0.000000
    26  C    0.000161
    27  O    0.000001
    28  N    0.000198
    29  H    0.000003
    30  C   -0.007341
    31  H    0.000010
    32  C    0.001215
    33  H   -0.000001
    34  H    0.000000
    35  H    0.000001
    36  C   -0.025852
    37  O    0.000113
    38  N   -0.043207
    39  H    0.002107
    40  C    0.419594
    41  H   -0.027708
    42  H   -0.031948
    43  H    0.488008
 Mulliken charges:
               1
     1  C   -0.792204
     2  H    0.191508
     3  H    0.232425
     4  H    0.232224
     5  C    0.700613
     6  O   -0.573736
     7  N   -0.523275
     8  H    0.438295
     9  C   -0.850649
    10  H    0.250171
    11  H    0.247692
    12  C    1.189494
    13  O   -0.584251
    14  N   -0.291057
    15  C    0.056792
    16  H    0.219558
    17  H    0.215424
    18  C   -0.748983
    19  H    0.256200
    20  H    0.204479
    21  C   -0.484536
    22  H    0.241237
    23  H    0.203494
    24  C   -0.242233
    25  H    0.251765
    26  C    0.332581
    27  O   -0.540943
    28  N   -0.333874
    29  H    0.498021
    30  C   -0.878217
    31  H    0.236081
    32  C   -0.393958
    33  H    0.189355
    34  H    0.234841
    35  H    0.219573
    36  C    0.752212
    37  O   -0.554477
    38  N   -0.494223
    39  H    0.394438
    40  C   -0.334711
    41  H    0.184169
    42  H    0.224125
    43  H    0.224558
 Sum of Mulliken charges =   0.00000
 Mulliken charges with hydrogens summed into heavy atoms:
               1
     1  C   -0.136046
     5  C    0.700613
     6  O   -0.573736
     7  N   -0.084981
     9  C   -0.352786
    12  C    1.189494
    13  O   -0.584251
    14  N   -0.291057
    15  C    0.491774
    18  C   -0.288304
    21  C   -0.039805
    24  C    0.009532
    26  C    0.332581
    27  O   -0.540943
    28  N    0.164147
    30  C   -0.642136
    32  C    0.249811
    36  C    0.752212
    37  O   -0.554477
    38  N   -0.099785
    40  C    0.298142
 Electronic spatial extent (au):  <R**2>=           8600.3862
 Charge=              0.0000 electrons
 Dipole moment (field-independent basis, Debye):
    X=              4.3913    Y=              0.9484    Z=             -0.0093  Tot=              4.4926
 Quadrupole moment (field-independent basis, Debye-Ang):
   XX=           -123.5395   YY=           -120.0406   ZZ=           -129.3892
   XY=            -16.5628   XZ=             13.5209   YZ=             -5.3475
 Traceless Quadrupole moment (field-independent basis, Debye-Ang):
   XX=              0.7836   YY=              4.2825   ZZ=             -5.0661
   XY=            -16.5628   XZ=             13.5209   YZ=             -5.3475
 Octapole moment (field-independent basis, Debye-Ang**2):
  XXX=            358.6591  YYY=            -35.9363  ZZZ=              0.2412  XYY=            -56.4273
  XXY=            -47.8750  XXZ=            -46.5002  XZZ=             11.8977  YZZ=              7.3353
  YYZ=            -14.0212  XYZ=            -30.5277
 Hexadecapole moment (field-independent basis, Debye-Ang**3):
 XXXX=          -7169.8168 YYYY=          -3509.2047 ZZZZ=           -616.4908 XXXY=           -499.1700
 XXXZ=            436.1990 YYYX=            -24.7038 YYYZ=            -35.1829 ZZZX=             -0.2450
 ZZZY=              3.3273 XXYY=          -1576.4152 XXZZ=          -1340.8782 YYZZ=           -720.8143
 XXYZ=             83.7029 YYXZ=             -3.7701 ZZXY=            -14.4050
 N-N= 1.753221774741D+03 E-N=-5.904115996266D+03  KE= 1.021867439673D+03
 No NMR shielding tensors so no spin-rotation constants.
 Leave Link  601 at Tue Apr  4 15:43:40 2023, MaxMem=    33554432 cpu:         2.3
 (Enter /hits/basement/its/doserbd/software/gaussian/g09d1/g09/l9999.exe)
 1\1\GINC-HASWELL-013\FOpt\RBMK\6-31+G\C13H22N4O4\SUCERQDL\04-Apr-2023\
 0\\#P bmk/6-31+g opt(modredun,calcfc)\\Gaussian input prepared by ASE\
 \0,1\C,1.4747017035,1.1877510486,0.8322347092\H,2.306646844,1.70808394
 76,1.319495403\H,1.2054882169,1.7179368707,-0.0892183197\H,0.600244531
 4,1.2048110709,1.4943394329\C,1.8015859996,-0.2560046008,0.4891789479\
 O,0.9839857273,-0.9983442631,-0.0927058354\N,3.0323482568,-0.703748788
 4,0.850400982\H,3.7135381039,-0.12211687,1.3227264066\C,3.44057795,-2.
 0643867463,0.5739061969\H,3.4140189939,-2.2641565798,-0.5090261475\H,2
 .7411882971,-2.7776101983,1.0380174665\C,4.8525876107,-2.2690556091,1.
 1165442964\O,5.4644258366,-1.3335273756,1.6860269499\N,5.3995049518,-3
 .4935300245,0.9536571361\C,4.7202855825,-4.6684120491,0.3613516149\H,4
 .4122290099,-4.4633335593,-0.6714435691\H,3.8261596621,-4.9203647996,0
 .9516514412\C,5.789073304,-5.7839556603,0.4512342264\H,6.4121511333,-5
 .7910519855,-0.4510079468\H,5.3336092297,-6.7728029401,0.5757104764\C,
 6.6575249792,-5.364045954,1.6651372544\H,7.6560059721,-5.8080926717,1.
 6285486597\H,6.1671362477,-5.6373188736,2.6093599867\C,6.716671288,-3.
 8281216041,1.5448442903\H,6.80515506,-3.316585367,2.511465811\C,7.8687
 778587,-3.3642766735,0.6206657991\O,8.531739309,-4.1804814163,-0.05604
 45622\N,8.1122915879,-2.0350021609,0.6033078001\H,7.5379967909,-1.3823
 49759,1.1370669015\C,9.1691012505,-1.4799067583,-0.2308628604\H,10.032
 9537895,-2.1577681047,-0.1765178569\C,8.7209072144,-1.3579901593,-1.71
 21645089\H,9.5336240429,-0.9691771199,-2.3399069706\H,8.4380794216,-2.
 3521565489,-2.0775544848\H,7.860406253,-0.6807801126,-1.7850432592\C,9
 .5353823153,-0.1020503972,0.3339761594\O,8.7337194848,0.5548604168,1.0
 22966474\N,10.763869756,0.3689727121,0.0004276043\H,11.3975231872,-0.2
 130246308,-0.5258257277\C,11.201596412,1.699452237,0.4162804108\H,12.1
 987818113,1.88780682,0.0082095281\H,10.5050653006,2.4617830481,0.04736
 23799\H,11.2343630129,1.7702033645,1.5105489054\\Version=ES64L-G09RevD
 .01\State=1-A\HF=-1027.7626853\RMSD=3.866e-09\RMSF=2.381e-06\Dipole=1.
 7576496,-0.1538024,-0.1055602\Quadrupole=-3.778442,5.6070879,-1.828645
 9,10.6714792,-10.0499595,-6.4352686\PG=C01 [X(C13H22N4O4)]\\@


 THE FIRST AND LAST THING REQUIRED OF GENIUS IS THE LOVE OF TRUTH.

                          -- GOETHE
 Job cpu time:       0 days 13 hours 33 minutes  6.3 seconds.
 File lengths (MBytes):  RWF=   1138 Int=      0 D2E=      0 Chk=     10 Scr=      1
 Normal termination of Gaussian 09 at Tue Apr  4 15:43:40 2023.
