 Entering Gaussian System, Link 0=g09
 Input=G-stretched08.com
 Output=G-stretched08.log
 Initial command:
 /hits/basement/its/doserbd/software/gaussian/g09d1/g09/l1.exe "/hits/basement/mbm/sucerquia/gaussian_scratch/Gau-9357.inp" -scrdir="/hits/basement/mbm/sucerquia/gaussian_scratch/"
 Entering Link 1 = /hits/basement/its/doserbd/software/gaussian/g09d1/g09/l1.exe PID=      9358.
  
 Copyright (c) 1988,1990,1992,1993,1995,1998,2003,2009,2013,
            Gaussian, Inc.  All Rights Reserved.
  
 This is part of the Gaussian(R) 09 program.  It is based on
 the Gaussian(R) 03 system (copyright 2003, Gaussian, Inc.),
 the Gaussian(R) 98 system (copyright 1998, Gaussian, Inc.),
 the Gaussian(R) 94 system (copyright 1995, Gaussian, Inc.),
 the Gaussian 92(TM) system (copyright 1992, Gaussian, Inc.),
 the Gaussian 90(TM) system (copyright 1990, Gaussian, Inc.),
 the Gaussian 88(TM) system (copyright 1988, Gaussian, Inc.),
 the Gaussian 86(TM) system (copyright 1986, Carnegie Mellon
 University), and the Gaussian 82(TM) system (copyright 1983,
 Carnegie Mellon University). Gaussian is a federally registered
 trademark of Gaussian, Inc.
  
 This software contains proprietary and confidential information,
 including trade secrets, belonging to Gaussian, Inc.
  
 This software is provided under written license and may be
 used, copied, transmitted, or stored only in accord with that
 written license.
  
 The following legend is applicable only to US Government
 contracts under FAR:
  
                    RESTRICTED RIGHTS LEGEND
  
 Use, reproduction and disclosure by the US Government is
 subject to restrictions as set forth in subparagraphs (a)
 and (c) of the Commercial Computer Software - Restricted
 Rights clause in FAR 52.227-19.
  
 Gaussian, Inc.
 340 Quinnipiac St., Bldg. 40, Wallingford CT 06492
  
  
 ---------------------------------------------------------------
 Warning -- This program may not be used in any manner that
 competes with the business of Gaussian, Inc. or will provide
 assistance to any competitor of Gaussian, Inc.  The licensee
 of this program is prohibited from giving any competitor of
 Gaussian, Inc. access to this program.  By using this program,
 the user acknowledges that Gaussian, Inc. is engaged in the
 business of creating and licensing software in the field of
 computational chemistry and represents and warrants to the
 licensee that it is not a competitor of Gaussian, Inc. and that
 it will not use this program in any manner prohibited above.
 ---------------------------------------------------------------
  

 Cite this work as:
 Gaussian 09, Revision D.01,
 M. J. Frisch, G. W. Trucks, H. B. Schlegel, G. E. Scuseria, 
 M. A. Robb, J. R. Cheeseman, G. Scalmani, V. Barone, B. Mennucci, 
 G. A. Petersson, H. Nakatsuji, M. Caricato, X. Li, H. P. Hratchian, 
 A. F. Izmaylov, J. Bloino, G. Zheng, J. L. Sonnenberg, M. Hada, 
 M. Ehara, K. Toyota, R. Fukuda, J. Hasegawa, M. Ishida, T. Nakajima, 
 Y. Honda, O. Kitao, H. Nakai, T. Vreven, J. A. Montgomery, Jr., 
 J. E. Peralta, F. Ogliaro, M. Bearpark, J. J. Heyd, E. Brothers, 
 K. N. Kudin, V. N. Staroverov, T. Keith, R. Kobayashi, J. Normand, 
 K. Raghavachari, A. Rendell, J. C. Burant, S. S. Iyengar, J. Tomasi, 
 M. Cossi, N. Rega, J. M. Millam, M. Klene, J. E. Knox, J. B. Cross, 
 V. Bakken, C. Adamo, J. Jaramillo, R. Gomperts, R. E. Stratmann, 
 O. Yazyev, A. J. Austin, R. Cammi, C. Pomelli, J. W. Ochterski, 
 R. L. Martin, K. Morokuma, V. G. Zakrzewski, G. A. Voth, 
 P. Salvador, J. J. Dannenberg, S. Dapprich, A. D. Daniels, 
 O. Farkas, J. B. Foresman, J. V. Ortiz, J. Cioslowski, 
 and D. J. Fox, Gaussian, Inc., Wallingford CT, 2013.
 
 ******************************************
 Gaussian 09:  ES64L-G09RevD.01 24-Apr-2013
                15-Jun-2023 
 ******************************************
 %chk=G-stretched08
 %NProcShared=8
 Will use up to    8 processors via shared memory.
 ----------------------------------
 #P bmk/6-31+g opt(modredun,calcfc)
 ----------------------------------
 1/10=4,14=-1,18=120,19=15,26=3,38=1/1,3;
 2/9=110,12=2,17=6,18=5,40=1/2;
 3/5=1,6=6,7=10,11=2,16=1,25=1,30=1,71=2,74=-34,140=1/1,2,3;
 4//1;
 5/5=2,38=5/2;
 8/6=4,10=90,11=11/1;
 11/6=1,8=1,9=11,15=111,16=1/1,2,10;
 10/6=1,13=1/2;
 6/7=2,8=2,9=2,10=2,28=1/1;
 7/10=1,18=20,25=1/1,2,3,16;
 1/10=4,14=-1,18=20,19=15,26=3/3(2);
 2/9=110/2;
 99//99;
 2/9=110/2;
 3/5=1,6=6,7=10,11=2,16=1,25=1,30=1,71=1,74=-34/1,2,3;
 4/5=5,16=3,69=1/1;
 5/5=2,38=5/2;
 7//1,2,3,16;
 1/14=-1,18=20,19=15,26=3/3(-5);
 2/9=110/2;
 6/7=2,8=2,9=2,10=2,19=2,28=1/1;
 99/9=1/99;
 Leave Link    1 at Thu Jun 15 10:26:26 2023, MaxMem=           0 cpu:         0.5
 (Enter /hits/basement/its/doserbd/software/gaussian/g09d1/g09/l101.exe)
 ------------------------------
 Gaussian input prepared by ASE
 ------------------------------
 Symbolic Z-matrix:
 Charge =  0 Multiplicity = 1
 C                     0.        0.        0. 
 H                    -0.12661   1.08556   0.00012 
 H                    -0.39206  -0.47201  -0.90605 
 H                    -0.39208  -0.47222   0.90593 
 C                     1.75148  -0.52855  -0.00004 
 O                     1.8168   -1.76638  -0.00013 
 N                     3.03215   0.19717   0.00001 
 H                     3.04228   1.20958   0.00009 
 C                     4.46882  -0.51684  -0.00006 
 H                     4.48575  -1.16391  -0.88627 
 H                     4.48574  -1.16409   0.88602 
 C                     5.95497   0.34646   0.00004 
 O                     5.909     1.57863   0.00017 
 N                     7.2245   -0.38255  -0.00004 
 H                     7.11114  -1.39074  -0.00015 
 C                     8.8857    0.        0. 
 H                     9.29865  -0.43924  -0.91316 
 H                     8.94909   1.08956   0.0001 
 H                     9.29865  -0.43941   0.91309 
 
 The following ModRedundant input section has been read:
 B       1      16 F                                                           
 
 NAtoms=     19 NQM=       19 NQMF=       0 NMMI=      0 NMMIF=      0
                NMic=       0 NMicF=      0.
                    Isotopes and Nuclear Properties:
 (Nuclear quadrupole moments (NQMom) in fm**2, nuclear magnetic moments (NMagM)
  in nuclear magnetons)

  Atom         1           2           3           4           5           6           7           8           9          10
 IAtWgt=          12           1           1           1          12          16          14           1          12           1
 AtmWgt=  12.0000000   1.0078250   1.0078250   1.0078250  12.0000000  15.9949146  14.0030740   1.0078250  12.0000000   1.0078250
 NucSpn=           0           1           1           1           0           0           2           1           0           1
 AtZEff=   0.0000000   0.0000000   0.0000000   0.0000000   0.0000000   0.0000000   0.0000000   0.0000000   0.0000000   0.0000000
 NQMom=    0.0000000   0.0000000   0.0000000   0.0000000   0.0000000   0.0000000   2.0440000   0.0000000   0.0000000   0.0000000
 NMagM=    0.0000000   2.7928460   2.7928460   2.7928460   0.0000000   0.0000000   0.4037610   2.7928460   0.0000000   2.7928460
 AtZNuc=   6.0000000   1.0000000   1.0000000   1.0000000   6.0000000   8.0000000   7.0000000   1.0000000   6.0000000   1.0000000

  Atom        11          12          13          14          15          16          17          18          19
 IAtWgt=           1          12          16          14           1          12           1           1           1
 AtmWgt=   1.0078250  12.0000000  15.9949146  14.0030740   1.0078250  12.0000000   1.0078250   1.0078250   1.0078250
 NucSpn=           1           0           0           2           1           0           1           1           1
 AtZEff=   0.0000000   0.0000000   0.0000000   0.0000000   0.0000000   0.0000000   0.0000000   0.0000000   0.0000000
 NQMom=    0.0000000   0.0000000   0.0000000   2.0440000   0.0000000   0.0000000   0.0000000   0.0000000   0.0000000
 NMagM=    2.7928460   0.0000000   0.0000000   0.4037610   2.7928460   0.0000000   2.7928460   2.7928460   2.7928460
 AtZNuc=   1.0000000   6.0000000   8.0000000   7.0000000   1.0000000   6.0000000   1.0000000   1.0000000   1.0000000
 Leave Link  101 at Thu Jun 15 10:26:26 2023, MaxMem=    33554432 cpu:         0.8
 (Enter /hits/basement/its/doserbd/software/gaussian/g09d1/g09/l103.exe)

 GradGradGradGradGradGradGradGradGradGradGradGradGradGradGradGradGradGrad
 Berny optimization.
 Initialization pass.
                           ----------------------------
                           !    Initial Parameters    !
                           ! (Angstroms and Degrees)  !
 --------------------------                            --------------------------
 ! Name  Definition              Value          Derivative Info.                !
 --------------------------------------------------------------------------------
 ! R1    R(1,2)                  1.0929         calculate D2E/DX2 analytically  !
 ! R2    R(1,3)                  1.0943         calculate D2E/DX2 analytically  !
 ! R3    R(1,4)                  1.0943         calculate D2E/DX2 analytically  !
 ! R4    R(1,5)                  1.8295         calculate D2E/DX2 analytically  !
 ! R5    R(1,16)                 8.8857         frozen, calculate D2E/DX2 analyt!
 ! R6    R(5,6)                  1.2396         calculate D2E/DX2 analytically  !
 ! R7    R(5,7)                  1.472          calculate D2E/DX2 analytically  !
 ! R8    R(7,8)                  1.0125         calculate D2E/DX2 analytically  !
 ! R9    R(7,9)                  1.6043         calculate D2E/DX2 analytically  !
 ! R10   R(9,10)                 1.0974         calculate D2E/DX2 analytically  !
 ! R11   R(9,11)                 1.0974         calculate D2E/DX2 analytically  !
 ! R12   R(9,12)                 1.7187         calculate D2E/DX2 analytically  !
 ! R13   R(12,13)                1.233          calculate D2E/DX2 analytically  !
 ! R14   R(12,14)                1.464          calculate D2E/DX2 analytically  !
 ! R15   R(14,15)                1.0145         calculate D2E/DX2 analytically  !
 ! R16   R(14,16)                1.7047         calculate D2E/DX2 analytically  !
 ! R17   R(16,17)                1.0942         calculate D2E/DX2 analytically  !
 ! R18   R(16,18)                1.0914         calculate D2E/DX2 analytically  !
 ! R19   R(16,19)                1.0942         calculate D2E/DX2 analytically  !
 ! A1    A(2,1,3)              112.7698         calculate D2E/DX2 analytically  !
 ! A2    A(2,1,4)              112.7699         calculate D2E/DX2 analytically  !
 ! A3    A(2,1,5)              113.4451         calculate D2E/DX2 analytically  !
 ! A4    A(3,1,4)              111.7756         calculate D2E/DX2 analytically  !
 ! A5    A(3,1,5)              102.6131         calculate D2E/DX2 analytically  !
 ! A6    A(4,1,5)              102.6128         calculate D2E/DX2 analytically  !
 ! A7    A(1,5,6)              109.8133         calculate D2E/DX2 analytically  !
 ! A8    A(1,5,7)              133.6684         calculate D2E/DX2 analytically  !
 ! A9    A(6,5,7)              116.5183         calculate D2E/DX2 analytically  !
 ! A10   A(5,7,8)              120.1123         calculate D2E/DX2 analytically  !
 ! A11   A(5,7,9)              124.034          calculate D2E/DX2 analytically  !
 ! A12   A(8,7,9)              115.8537         calculate D2E/DX2 analytically  !
 ! A13   A(7,9,10)             106.0374         calculate D2E/DX2 analytically  !
 ! A14   A(7,9,11)             106.0373         calculate D2E/DX2 analytically  !
 ! A15   A(7,9,12)             123.421          calculate D2E/DX2 analytically  !
 ! A16   A(10,9,11)            107.6994         calculate D2E/DX2 analytically  !
 ! A17   A(10,9,12)            106.4314         calculate D2E/DX2 analytically  !
 ! A18   A(11,9,12)            106.4316         calculate D2E/DX2 analytically  !
 ! A19   A(9,12,13)            118.0151         calculate D2E/DX2 analytically  !
 ! A20   A(9,12,14)            119.9819         calculate D2E/DX2 analytically  !
 ! A21   A(13,12,14)           122.0029         calculate D2E/DX2 analytically  !
 ! A22   A(12,14,15)           113.4507         calculate D2E/DX2 analytically  !
 ! A23   A(12,14,16)           137.1656         calculate D2E/DX2 analytically  !
 ! A24   A(15,14,16)           109.3837         calculate D2E/DX2 analytically  !
 ! A25   A(14,16,17)           106.1209         calculate D2E/DX2 analytically  !
 ! A26   A(14,16,18)           106.2983         calculate D2E/DX2 analytically  !
 ! A27   A(14,16,19)           106.121          calculate D2E/DX2 analytically  !
 ! A28   A(17,16,18)           112.2652         calculate D2E/DX2 analytically  !
 ! A29   A(17,16,19)           113.1261         calculate D2E/DX2 analytically  !
 ! A30   A(18,16,19)           112.2652         calculate D2E/DX2 analytically  !
 ! D1    D(2,1,5,6)            179.9973         calculate D2E/DX2 analytically  !
 ! D2    D(2,1,5,7)             -0.0029         calculate D2E/DX2 analytically  !
 ! D3    D(3,1,5,6)            -58.0425         calculate D2E/DX2 analytically  !
 ! D4    D(3,1,5,7)            121.9574         calculate D2E/DX2 analytically  !
 ! D5    D(4,1,5,6)             58.037          calculate D2E/DX2 analytically  !
 ! D6    D(4,1,5,7)           -121.9631         calculate D2E/DX2 analytically  !
 ! D7    D(1,5,7,8)              0.0005         calculate D2E/DX2 analytically  !
 ! D8    D(1,5,7,9)           -179.9992         calculate D2E/DX2 analytically  !
 ! D9    D(6,5,7,8)           -179.9997         calculate D2E/DX2 analytically  !
 ! D10   D(6,5,7,9)              0.0006         calculate D2E/DX2 analytically  !
 ! D11   D(5,7,9,10)            57.1595         calculate D2E/DX2 analytically  !
 ! D12   D(5,7,9,11)           -57.1566         calculate D2E/DX2 analytically  !
 ! D13   D(5,7,9,12)          -179.9986         calculate D2E/DX2 analytically  !
 ! D14   D(8,7,9,10)          -122.8402         calculate D2E/DX2 analytically  !
 ! D15   D(8,7,9,11)           122.8436         calculate D2E/DX2 analytically  !
 ! D16   D(8,7,9,12)             0.0017         calculate D2E/DX2 analytically  !
 ! D17   D(7,9,12,13)            0.0004         calculate D2E/DX2 analytically  !
 ! D18   D(7,9,12,14)         -179.9996         calculate D2E/DX2 analytically  !
 ! D19   D(10,9,12,13)         122.6639         calculate D2E/DX2 analytically  !
 ! D20   D(10,9,12,14)         -57.3361         calculate D2E/DX2 analytically  !
 ! D21   D(11,9,12,13)        -122.6631         calculate D2E/DX2 analytically  !
 ! D22   D(11,9,12,14)          57.3369         calculate D2E/DX2 analytically  !
 ! D23   D(9,12,14,15)           0.0002         calculate D2E/DX2 analytically  !
 ! D24   D(9,12,14,16)        -180.0            calculate D2E/DX2 analytically  !
 ! D25   D(13,12,14,15)       -179.9997         calculate D2E/DX2 analytically  !
 ! D26   D(13,12,14,16)          0.0001         calculate D2E/DX2 analytically  !
 ! D27   D(12,14,16,17)       -119.6989         calculate D2E/DX2 analytically  !
 ! D28   D(12,14,16,18)         -0.001          calculate D2E/DX2 analytically  !
 ! D29   D(12,14,16,19)        119.6968         calculate D2E/DX2 analytically  !
 ! D30   D(15,14,16,17)         60.301          calculate D2E/DX2 analytically  !
 ! D31   D(15,14,16,18)        179.9988         calculate D2E/DX2 analytically  !
 ! D32   D(15,14,16,19)        -60.3033         calculate D2E/DX2 analytically  !
 --------------------------------------------------------------------------------
 Trust Radius=3.00D-01 FncErr=1.00D-07 GrdErr=1.00D-06
 Number of steps in this run=     91 maximum allowed number of steps=    114.
 GradGradGradGradGradGradGradGradGradGradGradGradGradGradGradGradGradGrad

 Leave Link  103 at Thu Jun 15 10:26:26 2023, MaxMem=    33554432 cpu:         0.1
 (Enter /hits/basement/its/doserbd/software/gaussian/g09d1/g09/l202.exe)
                          Input orientation:                          
 ---------------------------------------------------------------------
 Center     Atomic      Atomic             Coordinates (Angstroms)
 Number     Number       Type             X           Y           Z
 ---------------------------------------------------------------------
      1          6           0        0.000000    0.000000    0.000000
      2          1           0       -0.126612    1.085557    0.000125
      3          1           0       -0.392055   -0.472008   -0.906052
      4          1           0       -0.392075   -0.472221    0.905932
      5          6           0        1.751479   -0.528554   -0.000037
      6          8           0        1.816801   -1.766384   -0.000125
      7          7           0        3.032152    0.197169    0.000012
      8          1           0        3.042281    1.209580    0.000089
      9          6           0        4.468821   -0.516843   -0.000055
     10          1           0        4.485752   -1.163910   -0.886266
     11          1           0        4.485743   -1.164092    0.886022
     12          6           0        5.954975    0.346456    0.000038
     13          8           0        5.908998    1.578633    0.000171
     14          7           0        7.224502   -0.382552   -0.000042
     15          1           0        7.111143   -1.390736   -0.000155
     16          6           0        8.885697    0.000000    0.000000
     17          1           0        9.298653   -0.439241   -0.913163
     18          1           0        8.949091    1.089559    0.000100
     19          1           0        9.298648   -0.439408    0.913085
 ---------------------------------------------------------------------
                    Distance matrix (angstroms):
                    1          2          3          4          5
     1  C    0.000000
     2  H    1.092915   0.000000
     3  H    1.094271   1.821435   0.000000
     4  H    1.094271   1.821436   1.811984   0.000000
     5  C    1.829494   2.476405   2.327832   2.327827   0.000000
     6  O    2.533945   3.451147   2.715724   2.715682   1.239552
     7  N    3.038556   3.281314   3.604712   3.604734   1.472004
     8  H    3.273921   3.171319   3.929822   3.929861   2.165012
     9  C    4.498609   4.866794   4.944791   4.944807   2.717367
    10  H    4.718276   5.207657   4.926675   5.242481   2.943693
    11  H    4.718266   5.207643   5.242463   4.926681   2.943672
    12  C    5.965045   6.126333   6.463411   6.463429   4.293602
    13  O    6.116235   6.055717   6.688022   6.688043   4.661030
    14  N    7.234623   7.496280   7.670776   7.670793   5.474969
    15  H    7.245861   7.649648   7.613323   7.613340   5.428568
    16  C    8.885697   9.077453   9.333832   9.333851   7.153771
    17  H    9.353702   9.591387   9.690766   9.860041   7.602737
    18  H    9.015175   9.075704   9.514023   9.514047   7.377256
    19  H    9.353698   9.591378   9.860023   9.690781   7.602729
                    6          7          8          9         10
     6  O    0.000000
     7  N    2.309246   0.000000
     8  H    3.218410   1.012462   0.000000
     9  C    2.931648   1.604316   2.239542   0.000000
    10  H    2.876025   2.179674   2.915937   1.097430   0.000000
    11  H    2.875980   2.179672   2.915952   1.097429   1.772288
    12  C    4.646351   2.926633   3.037889   1.718703   2.285904
    13  O    5.285377   3.191345   2.890375   2.542662   3.214490
    14  N    5.581955   4.232242   4.475025   2.758951   2.982728
    15  H    5.307652   4.377169   4.828797   2.783084   2.780165
    16  C    7.286248   5.856865   5.967294   4.447013   4.636774
    17  H    7.653304   6.364585   6.534128   4.916001   4.867225
    18  H    7.682837   5.983856   5.908030   4.759554   5.077910
    19  H    7.653290   6.364582   6.534130   4.916000   5.189078
                   11         12         13         14         15
    11  H    0.000000
    12  C    2.285906   0.000000
    13  O    3.214487   1.233034   0.000000
    14  N    2.982736   1.463950   2.361524   0.000000
    15  H    2.780180   2.086758   3.203483   1.014537   0.000000
    16  C    4.636782   2.951130   3.369395   1.704675   2.254593
    17  H    5.189083   3.554074   4.049168   2.266960   2.554237
    18  H    5.077921   3.084953   3.079182   2.267448   3.087056
    19  H    4.867233   3.554067   4.049152   2.266962   2.554253
                   16         17         18         19
    16  C    0.000000
    17  H    1.094226   0.000000
    18  H    1.091402   1.814793   0.000000
    19  H    1.094227   1.826248   1.814793   0.000000
 Stoichiometry    C5H10N2O2
 Framework group  C1[X(C5H10N2O2)]
 Deg. of freedom    51
 Full point group                 C1      NOp   1
 Largest Abelian subgroup         C1      NOp   1
 Largest concise Abelian subgroup C1      NOp   1
                         Standard orientation:                         
 ---------------------------------------------------------------------
 Center     Atomic      Atomic             Coordinates (Angstroms)
 Number     Number       Type             X           Y           Z
 ---------------------------------------------------------------------
      1          6           0        4.333548    0.559506   -0.000006
      2          1           0        4.352814    1.652251   -0.000131
      3          1           0        4.770112    0.128331    0.906046
      4          1           0        4.770153    0.128121   -0.905938
      5          6           0        2.642523   -0.138694    0.000031
      6          8           0        2.699222   -1.376948    0.000119
      7          7           0        1.296702    0.457596   -0.000019
      8          1           0        1.187081    1.464106   -0.000096
      9          6           0       -0.062804   -0.394210    0.000049
     10          1           0       -0.016033   -1.039807    0.886260
     11          1           0       -0.016006   -1.039987   -0.886028
     12          6           0       -1.626637    0.318787   -0.000045
     13          8           0       -1.702031    1.549514   -0.000177
     14          7           0       -2.818336   -0.531510    0.000035
     15          1           0       -2.606402   -1.523663    0.000148
     16          6           0       -4.509096   -0.314141   -0.000006
     17          1           0       -4.876864   -0.791856    0.913156
     18          1           0       -4.679309    0.763906   -0.000107
     19          1           0       -4.876843   -0.792022   -0.913092
 ---------------------------------------------------------------------
 Rotational constants (GHZ):      5.0666389      0.4901586      0.4508438
 Leave Link  202 at Thu Jun 15 10:26:26 2023, MaxMem=    33554432 cpu:         0.1
 (Enter /hits/basement/its/doserbd/software/gaussian/g09d1/g09/l301.exe)
 Standard basis: 6-31+G (6D, 7F)
 Ernie: Thresh=  0.10000D-02 Tol=  0.10000D-05 Strict=F.
 There are   137 symmetry adapted cartesian basis functions of A   symmetry.
 There are   137 symmetry adapted basis functions of A   symmetry.
   137 basis functions,   274 primitive gaussians,   137 cartesian basis functions
    35 alpha electrons       35 beta electrons
       nuclear repulsion energy       406.5182381520 Hartrees.
 IExCor= 3226 DFT=T Ex+Corr=BMK ExCW=0 ScaHFX=  0.420000
 ScaDFX=  1.000000  1.000000  1.000000  1.000000 ScalE2=  1.000000  1.000000
 IRadAn=      0 IRanWt=     -1 IRanGd=            0 ICorTp=0 IEmpDi=  4
 NAtoms=   19 NActive=   19 NUniq=   19 SFac= 1.00D+00 NAtFMM=   60 NAOKFM=F Big=F
 Integral buffers will be    131072 words long.
 Raffenetti 2 integral format.
 Two-electron integral symmetry is turned on.
 Leave Link  301 at Thu Jun 15 10:26:26 2023, MaxMem=    33554432 cpu:         0.4
 (Enter /hits/basement/its/doserbd/software/gaussian/g09d1/g09/l302.exe)
 NPDir=0 NMtPBC=     1 NCelOv=     1 NCel=       1 NClECP=     1 NCelD=      1
         NCelK=      1 NCelE2=     1 NClLst=     1 CellRange=     0.0.
 One-electron integrals computed using PRISM.
 NBasis=   137 RedAO= T EigKep=  4.70D-05  NBF=   137
 NBsUse=   137 1.00D-06 EigRej= -1.00D+00 NBFU=   137
 Precomputing XC quadrature grid using
 IXCGrd= 4 IRadAn=           0 IRanWt=          -1 IRanGd=           0 AccXCQ= 0.00D+00.
 Generated NRdTot=       0 NPtTot=           0 NUsed=           0 NTot=          32
 NSgBfM=   136   136   136   136   136 MxSgAt=    19 MxSgA2=    19.
 Leave Link  302 at Thu Jun 15 10:26:27 2023, MaxMem=    33554432 cpu:         1.7
 (Enter /hits/basement/its/doserbd/software/gaussian/g09d1/g09/l303.exe)
 DipDrv:  MaxL=1.
 Leave Link  303 at Thu Jun 15 10:26:27 2023, MaxMem=    33554432 cpu:         0.2
 (Enter /hits/basement/its/doserbd/software/gaussian/g09d1/g09/l401.exe)
 ExpMin= 4.38D-02 ExpMax= 5.48D+03 ExpMxC= 8.25D+02 IAcc=2 IRadAn=         4 AccDes= 0.00D+00
 Harris functional with IExCor= 1009 and IRadAn=       4 diagonalized for initial guess.
 HarFok:  IExCor= 1009 AccDes= 0.00D+00 IRadAn=         4 IDoV= 1 UseB2=F ITyADJ=14
 ICtDFT=  3500011 ScaDFX=  1.000000  1.000000  1.000000  1.000000
 FoFCou: FMM=F IPFlag=           0 FMFlag=      100000 FMFlg1=           0
         NFxFlg=           0 DoJE=T BraDBF=F KetDBF=T FulRan=T
         wScrn=  0.000000 ICntrl=     500 IOpCl=  0 I1Cent=   200000004 NGrid=           0
         NMat0=    1 NMatS0=      1 NMatT0=    0 NMatD0=    1 NMtDS0=    0 NMtDT0=    0
 Petite list used in FoFCou.
 Harris En= -455.876666926726    
 JPrj=0 DoOrth=F DoCkMO=F.
 Leave Link  401 at Thu Jun 15 10:26:27 2023, MaxMem=    33554432 cpu:         3.6
 (Enter /hits/basement/its/doserbd/software/gaussian/g09d1/g09/l502.exe)
 Closed shell SCF:
 Using DIIS extrapolation, IDIIS=  1040.
 Integral symmetry usage will be decided dynamically.
 IVT=       77006 IEndB=       77006 NGot=    33554432 MDV=    33512973
 LenX=    33512973 LenY=    33493763
 Requested convergence on RMS density matrix=1.00D-08 within 128 cycles.
 Requested convergence on MAX density matrix=1.00D-06.
 Requested convergence on             energy=1.00D-06.
 No special actions if energy rises.
 Fock matrices will be formed incrementally for  20 cycles.

 Cycle   1  Pass 1  IDiag  1:
 FoFJK:  IHMeth= 1 ICntrl=       0 DoSepK=F KAlg= 0 I1Cent=   0 FoldK=F
 IRaf= 870000000 NMat=   1 IRICut=       1 DoRegI=T DoRafI=F ISym2E= 0.
 FoFCou: FMM=F IPFlag=           0 FMFlag=      100000 FMFlg1=           0
         NFxFlg=           0 DoJE=F BraDBF=F KetDBF=F FulRan=T
         wScrn=  0.000000 ICntrl=       0 IOpCl=  0 I1Cent=           0 NGrid=           0
         NMat0=    1 NMatS0=      1 NMatT0=    0 NMatD0=    1 NMtDS0=    0 NMtDT0=    0
 Symmetry not used in FoFCou.
 E= -455.779854787599    
 DIIS: error= 3.83D-02 at cycle   1 NSaved=   1.
 NSaved= 1 IEnMin= 1 EnMin= -455.779854787599     IErMin= 1 ErrMin= 3.83D-02
 ErrMax= 3.83D-02  0.00D+00 EMaxC= 1.00D-01 BMatC= 2.73D-01 BMatP= 2.73D-01
 IDIUse=3 WtCom= 6.17D-01 WtEn= 3.83D-01
 Coeff-Com:  0.100D+01
 Coeff-En:   0.100D+01
 Coeff:      0.100D+01
 Gap=     0.309 Goal=   None    Shift=    0.000
 GapD=    0.309 DampG=1.000 DampE=0.500 DampFc=0.5000 IDamp=-1.
 Damping current iteration by 5.00D-01
 RMSDP=2.19D-02 MaxDP=9.51D-01              OVMax= 2.84D-01

 Cycle   2  Pass 1  IDiag  1:
 RMSU=  9.95D-03    CP:  1.11D+00
 E= -455.826324367670     Delta-E=       -0.046469580070 Rises=F Damp=T
 DIIS: error= 2.18D-02 at cycle   2 NSaved=   2.
 NSaved= 2 IEnMin= 2 EnMin= -455.826324367670     IErMin= 2 ErrMin= 2.18D-02
 ErrMax= 2.18D-02  0.00D+00 EMaxC= 1.00D-01 BMatC= 5.36D-02 BMatP= 2.73D-01
 IDIUse=3 WtCom= 7.82D-01 WtEn= 2.18D-01
 Coeff-Com:  0.270D+00 0.730D+00
 Coeff-En:   0.406D+00 0.594D+00
 Coeff:      0.300D+00 0.700D+00
 Gap=     0.311 Goal=   None    Shift=    0.000
 RMSDP=9.28D-03 MaxDP=5.19D-01 DE=-4.65D-02 OVMax= 1.60D-01

 Cycle   3  Pass 1  IDiag  1:
 RMSU=  4.43D-03    CP:  9.85D-01  3.62D-01
 E= -456.006674839969     Delta-E=       -0.180350472300 Rises=F Damp=F
 DIIS: error= 1.22D-02 at cycle   3 NSaved=   3.
 NSaved= 3 IEnMin= 3 EnMin= -456.006674839969     IErMin= 3 ErrMin= 1.22D-02
 ErrMax= 1.22D-02  0.00D+00 EMaxC= 1.00D-01 BMatC= 1.55D-02 BMatP= 5.36D-02
 IDIUse=3 WtCom= 8.78D-01 WtEn= 1.22D-01
 Coeff-Com:  0.113D+00 0.356D+00 0.531D+00
 Coeff-En:   0.000D+00 0.000D+00 0.100D+01
 Coeff:      0.994D-01 0.312D+00 0.588D+00
 Gap=     0.303 Goal=   None    Shift=    0.000
 RMSDP=1.38D-03 MaxDP=2.61D-02 DE=-1.80D-01 OVMax= 4.19D-02

 Cycle   4  Pass 1  IDiag  1:
 RMSU=  1.24D-03    CP:  9.92D-01  4.12D-01  9.71D-01
 E= -456.019585930930     Delta-E=       -0.012911090961 Rises=F Damp=F
 DIIS: error= 4.43D-03 at cycle   4 NSaved=   4.
 NSaved= 4 IEnMin= 4 EnMin= -456.019585930930     IErMin= 4 ErrMin= 4.43D-03
 ErrMax= 4.43D-03  0.00D+00 EMaxC= 1.00D-01 BMatC= 2.51D-03 BMatP= 1.55D-02
 IDIUse=3 WtCom= 9.56D-01 WtEn= 4.43D-02
 Coeff-Com:  0.241D-01 0.466D-01 0.291D+00 0.638D+00
 Coeff-En:   0.000D+00 0.000D+00 0.844D-01 0.916D+00
 Coeff:      0.231D-01 0.446D-01 0.282D+00 0.650D+00
 Gap=     0.300 Goal=   None    Shift=    0.000
 RMSDP=5.57D-04 MaxDP=1.60D-02 DE=-1.29D-02 OVMax= 1.23D-02

 Cycle   5  Pass 1  IDiag  1:
 RMSU=  3.10D-04    CP:  9.87D-01  3.80D-01  1.00D+00  8.03D-01
 E= -456.021573668606     Delta-E=       -0.001987737676 Rises=F Damp=F
 DIIS: error= 1.23D-03 at cycle   5 NSaved=   5.
 NSaved= 5 IEnMin= 5 EnMin= -456.021573668606     IErMin= 5 ErrMin= 1.23D-03
 ErrMax= 1.23D-03  0.00D+00 EMaxC= 1.00D-01 BMatC= 1.96D-04 BMatP= 2.51D-03
 IDIUse=3 WtCom= 9.88D-01 WtEn= 1.23D-02
 Coeff-Com:  0.341D-02-0.144D-01 0.894D-01 0.325D+00 0.596D+00
 Coeff-En:   0.000D+00 0.000D+00 0.000D+00 0.000D+00 0.100D+01
 Coeff:      0.337D-02-0.142D-01 0.883D-01 0.321D+00 0.601D+00
 Gap=     0.300 Goal=   None    Shift=    0.000
 RMSDP=2.17D-04 MaxDP=1.08D-02 DE=-1.99D-03 OVMax= 3.99D-03

 Cycle   6  Pass 1  IDiag  1:
 RMSU=  1.04D-04    CP:  9.85D-01  3.69D-01  1.02D+00  8.37D-01  7.71D-01
 E= -456.021759938551     Delta-E=       -0.000186269944 Rises=F Damp=F
 DIIS: error= 2.95D-04 at cycle   6 NSaved=   6.
 NSaved= 6 IEnMin= 6 EnMin= -456.021759938551     IErMin= 6 ErrMin= 2.95D-04
 ErrMax= 2.95D-04  0.00D+00 EMaxC= 1.00D-01 BMatC= 1.33D-05 BMatP= 1.96D-04
 IDIUse=3 WtCom= 9.97D-01 WtEn= 2.95D-03
 Coeff-Com:  0.170D-02-0.103D-01 0.291D-01 0.108D+00 0.274D+00 0.598D+00
 Coeff-En:   0.000D+00 0.000D+00 0.000D+00 0.000D+00 0.000D+00 0.100D+01
 Coeff:      0.169D-02-0.103D-01 0.290D-01 0.108D+00 0.273D+00 0.599D+00
 Gap=     0.299 Goal=   None    Shift=    0.000
 RMSDP=6.91D-05 MaxDP=3.25D-03 DE=-1.86D-04 OVMax= 6.76D-04

 Cycle   7  Pass 1  IDiag  1:
 RMSU=  3.00D-05    CP:  9.84D-01  3.65D-01  1.02D+00  8.40D-01  8.01D-01
                    CP:  1.00D+00
 E= -456.021771335937     Delta-E=       -0.000011397387 Rises=F Damp=F
 DIIS: error= 1.17D-04 at cycle   7 NSaved=   7.
 NSaved= 7 IEnMin= 7 EnMin= -456.021771335937     IErMin= 7 ErrMin= 1.17D-04
 ErrMax= 1.17D-04  0.00D+00 EMaxC= 1.00D-01 BMatC= 1.71D-06 BMatP= 1.33D-05
 IDIUse=3 WtCom= 9.99D-01 WtEn= 1.17D-03
 Coeff-Com:  0.819D-03-0.223D-02-0.394D-02-0.232D-01-0.168D-02 0.215D+00
 Coeff-Com:  0.816D+00
 Coeff-En:   0.000D+00 0.000D+00 0.000D+00 0.000D+00 0.000D+00 0.000D+00
 Coeff-En:   0.100D+01
 Coeff:      0.818D-03-0.223D-02-0.394D-02-0.232D-01-0.168D-02 0.214D+00
 Coeff:      0.816D+00
 Gap=     0.299 Goal=   None    Shift=    0.000
 RMSDP=3.16D-05 MaxDP=9.75D-04 DE=-1.14D-05 OVMax= 5.14D-04

 Cycle   8  Pass 1  IDiag  1:
 RMSU=  1.58D-05    CP:  9.84D-01  3.62D-01  1.02D+00  8.38D-01  8.31D-01
                    CP:  1.04D+00  9.72D-01
 E= -456.021772814502     Delta-E=       -0.000001478564 Rises=F Damp=F
 DIIS: error= 6.85D-05 at cycle   8 NSaved=   8.
 NSaved= 8 IEnMin= 8 EnMin= -456.021772814502     IErMin= 8 ErrMin= 6.85D-05
 ErrMax= 6.85D-05  0.00D+00 EMaxC= 1.00D-01 BMatC= 3.08D-07 BMatP= 1.71D-06
 IDIUse=1 WtCom= 1.00D+00 WtEn= 0.00D+00
 Coeff-Com:  0.390D-03-0.541D-03-0.480D-02-0.240D-01-0.254D-01 0.686D-01
 Coeff-Com:  0.496D+00 0.490D+00
 Coeff:      0.390D-03-0.541D-03-0.480D-02-0.240D-01-0.254D-01 0.686D-01
 Coeff:      0.496D+00 0.490D+00
 Gap=     0.299 Goal=   None    Shift=    0.000
 RMSDP=1.34D-05 MaxDP=5.25D-04 DE=-1.48D-06 OVMax= 2.02D-04

 Cycle   9  Pass 1  IDiag  1:
 RMSU=  7.43D-06    CP:  9.84D-01  3.61D-01  1.02D+00  8.38D-01  8.39D-01
                    CP:  1.04D+00  1.05D+00  1.01D+00
 E= -456.021773058941     Delta-E=       -0.000000244439 Rises=F Damp=F
 DIIS: error= 1.76D-05 at cycle   9 NSaved=   9.
 NSaved= 9 IEnMin= 9 EnMin= -456.021773058941     IErMin= 9 ErrMin= 1.76D-05
 ErrMax= 1.76D-05  0.00D+00 EMaxC= 1.00D-01 BMatC= 2.77D-08 BMatP= 3.08D-07
 IDIUse=1 WtCom= 1.00D+00 WtEn= 0.00D+00
 Coeff-Com: -0.141D-04 0.225D-03-0.832D-03-0.431D-02-0.969D-02-0.289D-01
 Coeff-Com:  0.240D-01 0.240D+00 0.780D+00
 Coeff:     -0.141D-04 0.225D-03-0.832D-03-0.431D-02-0.969D-02-0.289D-01
 Coeff:      0.240D-01 0.240D+00 0.780D+00
 Gap=     0.299 Goal=   None    Shift=    0.000
 RMSDP=2.74D-06 MaxDP=5.57D-05 DE=-2.44D-07 OVMax= 7.48D-05

 Cycle  10  Pass 1  IDiag  1:
 RMSU=  1.67D-06    CP:  9.83D-01  3.61D-01  1.02D+00  8.38D-01  8.41D-01
                    CP:  1.05D+00  1.06D+00  1.06D+00  8.41D-01
 E= -456.021773087145     Delta-E=       -0.000000028204 Rises=F Damp=F
 DIIS: error= 3.86D-06 at cycle  10 NSaved=  10.
 NSaved=10 IEnMin=10 EnMin= -456.021773087145     IErMin=10 ErrMin= 3.86D-06
 ErrMax= 3.86D-06  0.00D+00 EMaxC= 1.00D-01 BMatC= 2.01D-09 BMatP= 2.77D-08
 IDIUse=1 WtCom= 1.00D+00 WtEn= 0.00D+00
 Coeff-Com: -0.292D-04 0.142D-03-0.102D-03-0.711D-03-0.315D-02-0.180D-01
 Coeff-Com: -0.146D-01 0.829D-01 0.377D+00 0.576D+00
 Coeff:     -0.292D-04 0.142D-03-0.102D-03-0.711D-03-0.315D-02-0.180D-01
 Coeff:     -0.146D-01 0.829D-01 0.377D+00 0.576D+00
 Gap=     0.299 Goal=   None    Shift=    0.000
 RMSDP=7.97D-07 MaxDP=2.38D-05 DE=-2.82D-08 OVMax= 1.10D-05

 Cycle  11  Pass 1  IDiag  1:
 RMSU=  5.75D-07    CP:  9.83D-01  3.61D-01  1.02D+00  8.38D-01  8.41D-01
                    CP:  1.05D+00  1.07D+00  1.07D+00  8.84D-01  9.19D-01
 E= -456.021773089276     Delta-E=       -0.000000002131 Rises=F Damp=F
 DIIS: error= 9.03D-07 at cycle  11 NSaved=  11.
 NSaved=11 IEnMin=11 EnMin= -456.021773089276     IErMin=11 ErrMin= 9.03D-07
 ErrMax= 9.03D-07  0.00D+00 EMaxC= 1.00D-01 BMatC= 1.09D-10 BMatP= 2.01D-09
 IDIUse=1 WtCom= 1.00D+00 WtEn= 0.00D+00
 Coeff-Com: -0.932D-05 0.221D-04 0.738D-04 0.272D-03 0.196D-03-0.218D-02
 Coeff-Com: -0.722D-02-0.641D-02 0.249D-01 0.186D+00 0.805D+00
 Coeff:     -0.932D-05 0.221D-04 0.738D-04 0.272D-03 0.196D-03-0.218D-02
 Coeff:     -0.722D-02-0.641D-02 0.249D-01 0.186D+00 0.805D+00
 Gap=     0.299 Goal=   None    Shift=    0.000
 RMSDP=2.34D-07 MaxDP=7.96D-06 DE=-2.13D-09 OVMax= 5.49D-06

 Cycle  12  Pass 1  IDiag  1:
 RMSU=  1.40D-07    CP:  9.83D-01  3.61D-01  1.02D+00  8.38D-01  8.41D-01
                    CP:  1.05D+00  1.07D+00  1.07D+00  8.98D-01  9.70D-01
                    CP:  9.46D-01
 E= -456.021773089388     Delta-E=       -0.000000000112 Rises=F Damp=F
 DIIS: error= 3.17D-07 at cycle  12 NSaved=  12.
 NSaved=12 IEnMin=12 EnMin= -456.021773089388     IErMin=12 ErrMin= 3.17D-07
 ErrMax= 3.17D-07  0.00D+00 EMaxC= 1.00D-01 BMatC= 2.31D-11 BMatP= 1.09D-10
 IDIUse=1 WtCom= 1.00D+00 WtEn= 0.00D+00
 Coeff-Com: -0.299D-05 0.299D-05 0.439D-04 0.173D-03 0.304D-03 0.157D-03
 Coeff-Com: -0.284D-02-0.885D-02-0.148D-01 0.567D-01 0.419D+00 0.550D+00
 Coeff:     -0.299D-05 0.299D-05 0.439D-04 0.173D-03 0.304D-03 0.157D-03
 Coeff:     -0.284D-02-0.885D-02-0.148D-01 0.567D-01 0.419D+00 0.550D+00
 Gap=     0.299 Goal=   None    Shift=    0.000
 RMSDP=5.74D-08 MaxDP=1.43D-06 DE=-1.12D-10 OVMax= 9.41D-07

 Cycle  13  Pass 1  IDiag  1:
 RMSU=  3.85D-08    CP:  9.83D-01  3.61D-01  1.02D+00  8.38D-01  8.41D-01
                    CP:  1.05D+00  1.07D+00  1.07D+00  9.00D-01  9.82D-01
                    CP:  9.57D-01  9.28D-01
 E= -456.021773089412     Delta-E=       -0.000000000024 Rises=F Damp=F
 DIIS: error= 6.76D-08 at cycle  13 NSaved=  13.
 NSaved=13 IEnMin=13 EnMin= -456.021773089412     IErMin=13 ErrMin= 6.76D-08
 ErrMax= 6.76D-08  0.00D+00 EMaxC= 1.00D-01 BMatC= 9.98D-13 BMatP= 2.31D-11
 IDIUse=1 WtCom= 1.00D+00 WtEn= 0.00D+00
 Coeff-Com:  0.110D-06-0.141D-05 0.744D-05 0.237D-04 0.833D-04 0.328D-03
 Coeff-Com: -0.200D-03-0.173D-02-0.792D-02-0.398D-02 0.354D-01 0.172D+00
 Coeff-Com:  0.806D+00
 Coeff:      0.110D-06-0.141D-05 0.744D-05 0.237D-04 0.833D-04 0.328D-03
 Coeff:     -0.200D-03-0.173D-02-0.792D-02-0.398D-02 0.354D-01 0.172D+00
 Coeff:      0.806D+00
 Gap=     0.299 Goal=   None    Shift=    0.000
 RMSDP=2.92D-08 MaxDP=1.08D-06 DE=-2.39D-11 OVMax= 2.70D-07

 Cycle  14  Pass 1  IDiag  1:
 RMSU=  1.35D-08    CP:  9.83D-01  3.61D-01  1.02D+00  8.38D-01  8.41D-01
                    CP:  1.05D+00  1.07D+00  1.07D+00  8.99D-01  9.88D-01
                    CP:  9.64D-01  9.63D-01  8.82D-01
 E= -456.021773089410     Delta-E=        0.000000000002 Rises=F Damp=F
 DIIS: error= 1.29D-08 at cycle  14 NSaved=  14.
 NSaved=14 IEnMin=13 EnMin= -456.021773089412     IErMin=14 ErrMin= 1.29D-08
 ErrMax= 1.29D-08  0.00D+00 EMaxC= 1.00D-01 BMatC= 4.04D-14 BMatP= 9.98D-13
 IDIUse=1 WtCom= 1.00D+00 WtEn= 0.00D+00
 Coeff-Com:  0.150D-06-0.485D-06 0.293D-06-0.147D-05 0.103D-04 0.838D-04
 Coeff-Com:  0.639D-04-0.149D-03-0.141D-02-0.359D-02-0.876D-02 0.221D-01
 Coeff-Com:  0.223D+00 0.769D+00
 Coeff:      0.150D-06-0.485D-06 0.293D-06-0.147D-05 0.103D-04 0.838D-04
 Coeff:      0.639D-04-0.149D-03-0.141D-02-0.359D-02-0.876D-02 0.221D-01
 Coeff:      0.223D+00 0.769D+00
 Gap=     0.299 Goal=   None    Shift=    0.000
 RMSDP=4.08D-09 MaxDP=1.02D-07 DE= 1.59D-12 OVMax= 6.63D-08

 SCF Done:  E(RBMK) =  -456.021773089     A.U. after   14 cycles
            NFock= 14  Conv=0.41D-08     -V/T= 2.0089
 KE= 4.519912833742D+02 PE=-1.877187264010D+03 EE= 5.626559693943D+02
 Leave Link  502 at Thu Jun 15 10:26:39 2023, MaxMem=    33554432 cpu:        89.8
 (Enter /hits/basement/its/doserbd/software/gaussian/g09d1/g09/l801.exe)
 DoSCS=F DFT=T ScalE2(SS,OS)=  1.000000  1.000000
 Range of M.O.s used for correlation:     1   137
 NBasis=   137 NAE=    35 NBE=    35 NFC=     0 NFV=     0
 NROrb=    137 NOA=    35 NOB=    35 NVA=   102 NVB=   102

 **** Warning!!: The largest alpha MO coefficient is  0.45518686D+02

 Leave Link  801 at Thu Jun 15 10:26:39 2023, MaxMem=    33554432 cpu:         0.1
 (Enter /hits/basement/its/doserbd/software/gaussian/g09d1/g09/l1101.exe)
 Using compressed storage, NAtomX=    19.
 Will process     20 centers per pass.
 Leave Link 1101 at Thu Jun 15 10:26:39 2023, MaxMem=    33554432 cpu:         1.3
 (Enter /hits/basement/its/doserbd/software/gaussian/g09d1/g09/l1102.exe)
 Symmetrizing basis deriv contribution to polar:
 IMax=3 JMax=2 DiffMx= 0.00D+00
 Leave Link 1102 at Thu Jun 15 10:26:39 2023, MaxMem=    33554432 cpu:         0.2
 (Enter /hits/basement/its/doserbd/software/gaussian/g09d1/g09/l1110.exe)
 Forming Gx(P) for the SCF density, NAtomX=    19.
 Integral derivatives from FoFJK, PRISM(SPDF).
 Do as many integral derivatives as possible in FoFJK.
 G2DrvN: MDV=      33554176.
 G2DrvN: will do    20 centers at a time, making    1 passes.
 Calling FoFCou, ICntrl=  3107 FMM=F I1Cent=   0 AccDes= 0.00D+00.
 FoFJK:  IHMeth= 1 ICntrl=    3107 DoSepK=F KAlg= 0 I1Cent=   0 FoldK=F
 IRaf=         0 NMat=   1 IRICut=       1 DoRegI=T DoRafI=F ISym2E= 0.
 FoFCou: FMM=F IPFlag=           0 FMFlag=      100000 FMFlg1=           0
         NFxFlg=           0 DoJE=F BraDBF=F KetDBF=F FulRan=T
         wScrn=  0.000000 ICntrl=    3107 IOpCl=  0 I1Cent=           0 NGrid=           0
         NMat0=    1 NMatS0=      1 NMatT0=    0 NMatD0=    1 NMtDS0=    0 NMtDT0=    0
 Symmetry not used in FoFCou.
 End of G2Drv F.D. properties file   721 does not exist.
 End of G2Drv F.D. properties file   722 does not exist.
 End of G2Drv F.D. properties file   788 does not exist.
 Leave Link 1110 at Thu Jun 15 10:26:57 2023, MaxMem=    33554432 cpu:       142.7
 (Enter /hits/basement/its/doserbd/software/gaussian/g09d1/g09/l1002.exe)
 Minotr:  Closed shell wavefunction.
          IDoAtm=1111111111111111111
          Direct CPHF calculation.
          Differentiating once with respect to nuclear coordinates.
          Requested convergence is 1.0D-08 RMS, and 1.0D-07 maximum.
          Secondary convergence is 1.0D-12 RMS, and 1.0D-12 maximum.
          NewPWx=T KeepS1=F KeepF1=F KeepIn=T MapXYZ=F SortEE=F KeepMc=T.
          MDV=      33554101 using IRadAn=       2.
 Generate precomputed XC quadrature information.
          Solving linear equations simultaneously, MaxMat=       0.
 FoFJK:  IHMeth= 1 ICntrl=       0 DoSepK=F KAlg= 0 I1Cent=   0 FoldK=F
 IRaf= 870000000 NMat=  60 IRICut=     150 DoRegI=T DoRafI=T ISym2E= 2.
 FoFCou: FMM=F IPFlag=           0 FMFlag=      100000 FMFlg1=           0
         NFxFlg=           0 DoJE=F BraDBF=F KetDBF=F FulRan=T
         wScrn=  0.000000 ICntrl=       0 IOpCl=  0 I1Cent=           0 NGrid=           0
         NMat0=   60 NMatS0=     60 NMatT0=    0 NMatD0=   60 NMtDS0=    0 NMtDT0=    0
 Integrals replicated using symmetry in FoFCou.
          There are    60 degrees of freedom in the 1st order CPHF.  IDoFFX=6 NUNeed=     0.
     54 vectors produced by pass  0 Test12= 5.95D-15 1.67D-09 XBig12= 1.38D-01 9.41D-02.
 AX will form    54 AO Fock derivatives at one time.
     54 vectors produced by pass  1 Test12= 5.95D-15 1.67D-09 XBig12= 7.06D-03 2.55D-02.
     54 vectors produced by pass  2 Test12= 5.95D-15 1.67D-09 XBig12= 6.43D-05 1.55D-03.
     54 vectors produced by pass  3 Test12= 5.95D-15 1.67D-09 XBig12= 2.47D-07 7.54D-05.
     54 vectors produced by pass  4 Test12= 5.95D-15 1.67D-09 XBig12= 6.77D-10 3.53D-06.
     54 vectors produced by pass  5 Test12= 5.95D-15 1.67D-09 XBig12= 1.47D-12 1.66D-07.
     19 vectors produced by pass  6 Test12= 5.95D-15 1.67D-09 XBig12= 4.47D-15 1.04D-08.
      1 vectors produced by pass  7 Test12= 5.95D-15 1.67D-09 XBig12= 1.52D-16 2.45D-09.
 InvSVY:  IOpt=1 It=  1 EMax= 3.89D-16
 Solved reduced A of dimension   344 with    60 vectors.
 End of Minotr F.D. properties file   721 does not exist.
 End of Minotr F.D. properties file   722 does not exist.
 End of Minotr F.D. properties file   788 does not exist.
 Leave Link 1002 at Thu Jun 15 10:27:17 2023, MaxMem=    33554432 cpu:       159.4
 (Enter /hits/basement/its/doserbd/software/gaussian/g09d1/g09/l601.exe)
 Copying SCF densities to generalized density rwf, IOpCl= 0 IROHF=0.

 **********************************************************************

            Population analysis using the SCF density.

 **********************************************************************

 Orbital symmetries:
       Occupied  (A) (A) (A) (A) (A) (A) (A) (A) (A) (A) (A) (A)
                 (A) (A) (A) (A) (A) (A) (A) (A) (A) (A) (A) (A)
                 (A) (A) (A) (A) (A) (A) (A) (A) (A) (A) (A)
       Virtual   (A) (A) (A) (A) (A) (A) (A) (A) (A) (A) (A) (A)
                 (A) (A) (A) (A) (A) (A) (A) (A) (A) (A) (A) (A)
                 (A) (A) (A) (A) (A) (A) (A) (A) (A) (A) (A) (A)
                 (A) (A) (A) (A) (A) (A) (A) (A) (A) (A) (A) (A)
                 (A) (A) (A) (A) (A) (A) (A) (A) (A) (A) (A) (A)
                 (A) (A) (A) (A) (A) (A) (A) (A) (A) (A) (A) (A)
                 (A) (A) (A) (A) (A) (A) (A) (A) (A) (A) (A) (A)
                 (A) (A) (A) (A) (A) (A) (A) (A) (A) (A) (A) (A)
                 (A) (A) (A) (A) (A) (A)
 The electronic state is 1-A.
 Alpha  occ. eigenvalues --  -19.54238 -19.52902 -14.72433 -14.71808 -10.63550
 Alpha  occ. eigenvalues --  -10.62254 -10.55437 -10.54895 -10.50871  -1.15023
 Alpha  occ. eigenvalues --   -1.13848  -0.96720  -0.96029  -0.80161  -0.78236
 Alpha  occ. eigenvalues --   -0.76388  -0.63079  -0.62389  -0.56380  -0.51601
 Alpha  occ. eigenvalues --   -0.51586  -0.50411  -0.50152  -0.48471  -0.48078
 Alpha  occ. eigenvalues --   -0.47912  -0.46161  -0.44086  -0.43963  -0.42542
 Alpha  occ. eigenvalues --   -0.41536  -0.31052  -0.30462  -0.29342  -0.29247
 Alpha virt. eigenvalues --    0.00694   0.03119   0.03505   0.03661   0.03818
 Alpha virt. eigenvalues --    0.06636   0.06894   0.07259   0.07875   0.08419
 Alpha virt. eigenvalues --    0.09153   0.10013   0.10937   0.11128   0.11654
 Alpha virt. eigenvalues --    0.11985   0.12853   0.13726   0.15202   0.16082
 Alpha virt. eigenvalues --    0.16235   0.16792   0.18011   0.18594   0.20378
 Alpha virt. eigenvalues --    0.20852   0.21837   0.22585   0.22885   0.23542
 Alpha virt. eigenvalues --    0.23738   0.24929   0.26686   0.27261   0.27474
 Alpha virt. eigenvalues --    0.27588   0.29108   0.29593   0.30997   0.31617
 Alpha virt. eigenvalues --    0.32029   0.33188   0.33603   0.35161   0.36168
 Alpha virt. eigenvalues --    0.36218   0.36573   0.38155   0.39643   0.40628
 Alpha virt. eigenvalues --    0.42280   0.44453   0.46309   0.46405   0.51883
 Alpha virt. eigenvalues --    0.55261   0.65839   0.68186   0.69759   0.69921
 Alpha virt. eigenvalues --    0.70633   0.73590   0.77526   0.78879   0.80817
 Alpha virt. eigenvalues --    0.82523   0.84369   0.86161   0.92057   0.93487
 Alpha virt. eigenvalues --    0.99010   1.00271   1.01360   1.01641   1.09893
 Alpha virt. eigenvalues --    1.11067   1.11429   1.12606   1.13260   1.14479
 Alpha virt. eigenvalues --    1.15764   1.18142   1.22284   1.22562   1.24965
 Alpha virt. eigenvalues --    1.28405   1.31880   1.33648   1.36066   1.36229
 Alpha virt. eigenvalues --    1.40773   1.42342   1.44994   1.48973   1.51175
 Alpha virt. eigenvalues --    1.52317   1.55454   1.57317   1.65069   1.81358
 Alpha virt. eigenvalues --    1.99246   2.08853
          Condensed to atoms (all electrons):
               1          2          3          4          5          6
     1  C    6.023328   0.339794   0.396250   0.396253  -0.111190  -0.130587
     2  H    0.339794   0.524199  -0.025927  -0.025927  -0.020920   0.006113
     3  H    0.396250  -0.025927   0.468833  -0.023165  -0.040889  -0.002404
     4  H    0.396253  -0.025927  -0.023165   0.468830  -0.040891  -0.002404
     5  C   -0.111190  -0.020920  -0.040889  -0.040891   5.469000   0.403239
     6  O   -0.130587   0.006113  -0.002404  -0.002404   0.403239   8.467666
     7  N   -0.172756   0.004357   0.000202   0.000203  -0.028982  -0.209568
     8  H    0.009551  -0.000284   0.000000   0.000000   0.020266   0.007111
     9  C   -0.092747   0.000592  -0.002466  -0.002466  -0.553521  -0.038919
    10  H   -0.001329   0.000000   0.000005  -0.000001   0.001989   0.000747
    11  H   -0.001329   0.000000  -0.000001   0.000005   0.001991   0.000747
    12  C    0.032663  -0.000149  -0.000175  -0.000175   0.278498   0.014528
    13  O   -0.001275  -0.000001   0.000000   0.000000   0.004518  -0.000155
    14  N   -0.000460   0.000002   0.000000   0.000000   0.003802  -0.001082
    15  H    0.000061   0.000000   0.000000   0.000000   0.001902   0.000044
    16  C    0.000073   0.000000   0.000000   0.000000   0.001949  -0.000045
    17  H    0.000000   0.000000   0.000000   0.000000   0.000016   0.000000
    18  H    0.000000   0.000000   0.000000   0.000000  -0.000017   0.000000
    19  H    0.000000   0.000000   0.000000   0.000000   0.000016   0.000000
               7          8          9         10         11         12
     1  C   -0.172756   0.009551  -0.092747  -0.001329  -0.001329   0.032663
     2  H    0.004357  -0.000284   0.000592   0.000000   0.000000  -0.000149
     3  H    0.000202   0.000000  -0.002466   0.000005  -0.000001  -0.000175
     4  H    0.000203   0.000000  -0.002466  -0.000001   0.000005  -0.000175
     5  C   -0.028982   0.020266  -0.553521   0.001989   0.001991   0.278498
     6  O   -0.209568   0.007111  -0.038919   0.000747   0.000747   0.014528
     7  N    7.556911   0.257749   0.246466  -0.046341  -0.046338  -0.024221
     8  H    0.257749   0.330769  -0.041897   0.001580   0.001580   0.010860
     9  C    0.246466  -0.041897   9.439817   0.337208   0.337200  -2.488832
    10  H   -0.046341   0.001580   0.337208   0.500110  -0.036990  -0.006682
    11  H   -0.046338   0.001580   0.337200  -0.036990   0.500105  -0.006675
    12  C   -0.024221   0.010860  -2.488832  -0.006682  -0.006675   6.941520
    13  O    0.021807   0.002122   0.000474   0.001329   0.001328   0.254549
    14  N    0.011055   0.001336  -0.581578   0.012932   0.012932   0.458464
    15  H   -0.000121  -0.000002   0.056999  -0.000574  -0.000574  -0.050564
    16  C    0.002144   0.000265  -0.121453   0.001586   0.001586  -0.002667
    17  H   -0.000009   0.000000   0.003327   0.000004  -0.000001  -0.001989
    18  H   -0.000006   0.000000  -0.007851  -0.000001  -0.000001  -0.008102
    19  H   -0.000009   0.000000   0.003328  -0.000001   0.000004  -0.001989
              13         14         15         16         17         18
     1  C   -0.001275  -0.000460   0.000061   0.000073   0.000000   0.000000
     2  H   -0.000001   0.000002   0.000000   0.000000   0.000000   0.000000
     3  H    0.000000   0.000000   0.000000   0.000000   0.000000   0.000000
     4  H    0.000000   0.000000   0.000000   0.000000   0.000000   0.000000
     5  C    0.004518   0.003802   0.001902   0.001949   0.000016  -0.000017
     6  O   -0.000155  -0.001082   0.000044  -0.000045   0.000000   0.000000
     7  N    0.021807   0.011055  -0.000121   0.002144  -0.000009  -0.000006
     8  H    0.002122   0.001336  -0.000002   0.000265   0.000000   0.000000
     9  C    0.000474  -0.581578   0.056999  -0.121453   0.003327  -0.007851
    10  H    0.001329   0.012932  -0.000574   0.001586   0.000004  -0.000001
    11  H    0.001328   0.012932  -0.000574   0.001586  -0.000001  -0.000001
    12  C    0.254549   0.458464  -0.050564  -0.002667  -0.001989  -0.008102
    13  O    8.452751  -0.199471   0.010316  -0.020583  -0.000081   0.004435
    14  N   -0.199471   7.494119   0.256801   0.185028  -0.035519  -0.032950
    15  H    0.010316   0.256801   0.408512  -0.028022  -0.000598   0.001978
    16  C   -0.020583   0.185028  -0.028022   5.219922   0.379836   0.399914
    17  H   -0.000081  -0.035519  -0.000598   0.379836   0.497777  -0.023044
    18  H    0.004435  -0.032950   0.001978   0.399914  -0.023044   0.447569
    19  H   -0.000081  -0.035520  -0.000598   0.379836  -0.033422  -0.023044
              19
     1  C    0.000000
     2  H    0.000000
     3  H    0.000000
     4  H    0.000000
     5  C    0.000016
     6  O    0.000000
     7  N   -0.000009
     8  H    0.000000
     9  C    0.003328
    10  H   -0.000001
    11  H    0.000004
    12  C   -0.001989
    13  O   -0.000081
    14  N   -0.035520
    15  H   -0.000598
    16  C    0.379836
    17  H   -0.033422
    18  H   -0.023044
    19  H    0.497776
 Mulliken charges:
               1
     1  C   -0.686301
     2  H    0.198150
     3  H    0.229736
     4  H    0.229738
     5  C    0.609223
     6  O   -0.515032
     7  N   -0.572544
     8  H    0.398993
     9  C   -0.493683
    10  H    0.234428
    11  H    0.234431
    12  C    0.601138
    13  O   -0.531983
    14  N   -0.549890
    15  H    0.344437
    16  C   -0.399367
    17  H    0.213703
    18  H    0.241121
    19  H    0.213703
 Sum of Mulliken charges =   0.00000
 Mulliken charges with hydrogens summed into heavy atoms:
               1
     1  C   -0.028677
     5  C    0.609223
     6  O   -0.515032
     7  N   -0.173550
     9  C   -0.024824
    12  C    0.601138
    13  O   -0.531983
    14  N   -0.205453
    16  C    0.269159
 APT charges:
               1
     1  C   -1.598231
     2  H    0.413628
     3  H    0.616153
     4  H    0.616165
     5  C    0.411687
     6  O   -0.432121
     7  N   -0.780966
     8  H    0.575150
     9  C   -0.790489
    10  H    0.433064
    11  H    0.433064
    12  C    0.233611
    13  O   -0.493608
    14  N   -0.249128
    15  H    0.501487
    16  C   -1.631363
    17  H    0.638275
    18  H    0.465351
    19  H    0.638270
 Sum of APT charges =   0.00000
 APT charges with hydrogens summed into heavy atoms:
               1
     1  C    0.047715
     5  C    0.411687
     6  O   -0.432121
     7  N   -0.205817
     9  C    0.075639
    12  C    0.233611
    13  O   -0.493608
    14  N    0.252360
    16  C    0.110534
 Electronic spatial extent (au):  <R**2>=           2402.9577
 Charge=              0.0000 electrons
 Dipole moment (field-independent basis, Debye):
    X=             -2.6991    Y=             -0.6572    Z=              0.0002  Tot=              2.7780
 Quadrupole moment (field-independent basis, Debye-Ang):
   XX=            -33.4942   YY=            -61.6364   ZZ=            -55.7873
   XY=             18.8653   XZ=             -0.0015   YZ=              0.0007
 Traceless Quadrupole moment (field-independent basis, Debye-Ang):
   XX=             16.8118   YY=            -11.3304   ZZ=             -5.4813
   XY=             18.8653   XZ=             -0.0015   YZ=              0.0007
 Octapole moment (field-independent basis, Debye-Ang**2):
  XXX=            -65.0325  YYY=             -1.2452  ZZZ=              0.0006  XYY=             -9.9274
  XXY=              9.3099  XXZ=             -0.0006  XZZ=              0.9325  YZZ=             -2.3665
  YYZ=              0.0001  XYZ=              0.0009
 Hexadecapole moment (field-independent basis, Debye-Ang**3):
 XXXX=          -2129.3915 YYYY=           -303.2248 ZZZZ=            -75.8640 XXXY=            126.3065
 XXXZ=             -0.0165 YYYX=             56.1770 YYYZ=              0.0113 ZZZX=             -0.0090
 ZZZY=              0.0097 XXYY=           -547.4683 XXZZ=           -467.7143 YYZZ=            -61.2687
 XXYZ=              0.0076 YYXZ=             -0.0100 ZZXY=             -3.9708
 N-N= 4.065182381520D+02 E-N=-1.877187263764D+03  KE= 4.519912833742D+02
  Exact polarizability:   0.000   0.000   0.000   0.000   0.000   0.000
 Approx polarizability: 125.477   3.801 115.086   0.000  -0.005  64.269
 No NMR shielding tensors so no spin-rotation constants.
 Leave Link  601 at Thu Jun 15 10:27:17 2023, MaxMem=    33554432 cpu:         1.3
 (Enter /hits/basement/its/doserbd/software/gaussian/g09d1/g09/l701.exe)
 Compute integral second derivatives.
 ... and contract with generalized density number  0.
 Leave Link  701 at Thu Jun 15 10:27:17 2023, MaxMem=    33554432 cpu:         1.3
 (Enter /hits/basement/its/doserbd/software/gaussian/g09d1/g09/l702.exe)
 L702 exits ... SP integral derivatives will be done elsewhere.
 Leave Link  702 at Thu Jun 15 10:27:17 2023, MaxMem=    33554432 cpu:         0.1
 (Enter /hits/basement/its/doserbd/software/gaussian/g09d1/g09/l703.exe)
 Compute integral second derivatives, UseDBF=F ICtDFT=           0.
 Integral derivatives from FoFJK, PRISM(SPDF).
 Calling FoFJK, ICntrl=    100147 FMM=F ISym2X=0 I1Cent= 0 IOpClX= 0 NMat=1 NMatS=1 NMatT=0.
 FoFJK:  IHMeth= 1 ICntrl=  100147 DoSepK=F KAlg= 0 I1Cent=   0 FoldK=F
 IRaf=         0 NMat=   1 IRICut=       1 DoRegI=T DoRafI=F ISym2E= 0.
 FoFCou: FMM=F IPFlag=           0 FMFlag=      100000 FMFlg1=         800
         NFxFlg=           0 DoJE=F BraDBF=F KetDBF=F FulRan=T
         wScrn=  0.000000 ICntrl=  100147 IOpCl=  0 I1Cent=           0 NGrid=           0
         NMat0=    1 NMatS0=      1 NMatT0=    0 NMatD0=    1 NMtDS0=    0 NMtDT0=    0
 Symmetry not used in FoFCou.
 Leave Link  703 at Thu Jun 15 10:27:32 2023, MaxMem=    33554432 cpu:       117.4
 (Enter /hits/basement/its/doserbd/software/gaussian/g09d1/g09/l716.exe)
 Dipole        =-1.06190628D+00-2.58558695D-01 7.77863613D-05
 Polarizability= 0.00000000D+00 0.00000000D+00 0.00000000D+00
                 0.00000000D+00 0.00000000D+00 0.00000000D+00
 ***** Axes restored to original set *****
 -------------------------------------------------------------------
 Center     Atomic                   Forces (Hartrees/Bohr)
 Number     Number              X              Y              Z
 -------------------------------------------------------------------
      1        6           0.072061970   -0.000620791   -0.000000285
      2        1           0.000848954   -0.000225786   -0.000000198
      3        1           0.003064742    0.000400258    0.001054514
      4        1           0.003065078    0.000400248   -0.001054170
      5        6           0.008037092   -0.003096797    0.000000003
      6        8          -0.001740800    0.004943466    0.000000188
      7        7          -0.001516151   -0.003288802   -0.000000307
      8        1          -0.000198567    0.000174489    0.000000061
      9        6          -0.002350713   -0.001015817   -0.000000457
     10        1          -0.000382225    0.000953522   -0.000092165
     11        1          -0.000382082    0.000953319    0.000092873
     12        6           0.005129441    0.002540514    0.000000233
     13        8           0.000283035   -0.004608019   -0.000000524
     14        7          -0.004495586    0.003401699    0.000000265
     15        1           0.000982762   -0.000228278    0.000000002
     16        6          -0.074146784   -0.001093857    0.000000310
     17        1          -0.003571092    0.000293901    0.001198140
     18        1          -0.001118011   -0.000177549   -0.000000102
     19        1          -0.003571064    0.000294278   -0.001198382
 -------------------------------------------------------------------
 Cartesian Forces:  Max     0.074146784 RMS     0.013863110
 FormGI is forming the generalized inverse of G from B-inverse, IUseBI=4.
 Leave Link  716 at Thu Jun 15 10:27:32 2023, MaxMem=    33554432 cpu:         0.3
 (Enter /hits/basement/its/doserbd/software/gaussian/g09d1/g09/l103.exe)

 GradGradGradGradGradGradGradGradGradGradGradGradGradGradGradGradGradGrad
 Berny optimization.
 Red2BG is reusing G-inverse.
 Internal  Forces:  Max     0.071680830 RMS     0.008699441
 Search for a local minimum.
 Step number   1 out of a maximum of   91
 All quantities printed in internal units (Hartrees-Bohrs-Radians)
 RMS Force = .17964D-02 SwitMx=.10000D-02 MixMth= 1
 Mixed Optimization -- RFO/linear search
 Second derivative matrix not updated -- analytic derivatives used.
 ITU=  0
     Eigenvalues ---    0.00040   0.00051   0.00177   0.00346   0.00681
     Eigenvalues ---    0.00714   0.02044   0.02921   0.02935   0.03992
     Eigenvalues ---    0.05045   0.05066   0.05754   0.05819   0.06182
     Eigenvalues ---    0.06375   0.06443   0.06872   0.10761   0.10914
     Eigenvalues ---    0.11546   0.11734   0.11894   0.12754   0.13222
     Eigenvalues ---    0.13709   0.14430   0.15240   0.15484   0.17161
     Eigenvalues ---    0.18876   0.19420   0.20169   0.22389   0.25079
     Eigenvalues ---    0.29834   0.33052   0.34539   0.35265   0.35953
     Eigenvalues ---    0.36141   0.36231   0.36312   0.36498   0.37008
     Eigenvalues ---    0.47705   0.48674   0.60894   0.75700   0.77890
     Eigenvalues --- 1000.000001000.000001000.000001000.000001000.00000
     Eigenvalues --- 1000.000001000.000001000.000001000.000001000.00000
     Eigenvalues --- 1000.000001000.000001000.000001000.000001000.00000
     Eigenvalues --- 1000.000001000.000001000.000001000.000001000.00000
     Eigenvalues --- 1000.000001000.000001000.000001000.000001000.00000
     Eigenvalues --- 1000.000001000.000001000.000001000.000001000.00000
     Eigenvalues --- 1000.00000
 RFO step:  Lambda=-1.63830696D-03 EMin= 3.95279733D-04
 Linear search not attempted -- first point.
 Iteration  1 RMS(Cart)=  0.02760798 RMS(Int)=  0.00069192
 Iteration  2 RMS(Cart)=  0.00054274 RMS(Int)=  0.00021112
 Iteration  3 RMS(Cart)=  0.00000064 RMS(Int)=  0.00021112
 Iteration  1 RMS(Cart)=  0.00000235 RMS(Int)=  0.00000055
 Iteration  2 RMS(Cart)=  0.00000030 RMS(Int)=  0.00000058
 ITry= 1 IFail=0 DXMaxC= 9.03D-02 DCOld= 1.00D+10 DXMaxT= 3.00D-01 DXLimC= 3.00D+00 Rises=F
 Variable       Old X    -DE/DX   Delta X   Delta X   Delta X     New X
                                 (Linear)    (Quad)   (Total)
    R1        2.06531  -0.00032   0.00000  -0.00297  -0.00297   2.06234
    R2        2.06787  -0.00214   0.00000  -0.00806  -0.00806   2.05982
    R3        2.06787  -0.00214   0.00000  -0.00806  -0.00806   2.05982
    R4        3.45724  -0.00706   0.00000   0.09766   0.09768   3.55492
    R5       16.79153  -0.07168   0.00000   0.00000   0.00000  16.79153
    R6        2.34241  -0.00503   0.00000  -0.00612  -0.00612   2.33629
    R7        2.78168  -0.01277   0.00000  -0.03161  -0.03160   2.75009
    R8        1.91328   0.00017   0.00000  -0.00011  -0.00011   1.91317
    R9        3.03172  -0.01128   0.00000  -0.02782  -0.02781   3.00391
   R10        2.07384  -0.00049   0.00000  -0.00105  -0.00105   2.07279
   R11        2.07384  -0.00049   0.00000  -0.00105  -0.00105   2.07279
   R12        3.24788  -0.00742   0.00000  -0.00850  -0.00848   3.23939
   R13        2.33010  -0.00461   0.00000  -0.00270  -0.00270   2.32740
   R14        2.76647  -0.01359   0.00000  -0.03493  -0.03492   2.73155
   R15        1.91720   0.00012   0.00000   0.00009   0.00009   1.91729
   R16        3.22137  -0.01061   0.00000  -0.00841  -0.00840   3.21297
   R17        2.06779  -0.00247   0.00000  -0.00788  -0.00788   2.05991
   R18        2.06245  -0.00024   0.00000  -0.00127  -0.00127   2.06118
   R19        2.06779  -0.00247   0.00000  -0.00788  -0.00788   2.05991
    A1        1.96820   0.00172   0.00000   0.02307   0.02277   1.99097
    A2        1.96821   0.00172   0.00000   0.02307   0.02277   1.99098
    A3        1.97999  -0.00017   0.00000   0.00020  -0.00005   1.97994
    A4        1.95085   0.00239   0.00000   0.02754   0.02626   1.97711
    A5        1.79094  -0.00327   0.00000  -0.04266  -0.04317   1.74777
    A6        1.79093  -0.00327   0.00000  -0.04267  -0.04317   1.74776
    A7        1.91660   0.00018   0.00000  -0.03074  -0.03074   1.88586
    A8        2.33295  -0.00381   0.00000   0.01705   0.01706   2.35002
    A9        2.03363   0.00364   0.00000   0.01369   0.01368   2.04731
   A10        2.09635   0.00218   0.00000   0.00009   0.00008   2.09644
   A11        2.16480  -0.00475   0.00000  -0.00622  -0.00621   2.15859
   A12        2.02203   0.00257   0.00000   0.00613   0.00613   2.02816
   A13        1.85070   0.00074   0.00000   0.00036   0.00035   1.85105
   A14        1.85070   0.00074   0.00000   0.00036   0.00035   1.85105
   A15        2.15410  -0.00395   0.00000  -0.00536  -0.00536   2.14874
   A16        1.87971   0.00024   0.00000   0.00624   0.00624   1.88595
   A17        1.85758   0.00130   0.00000   0.00006   0.00005   1.85763
   A18        1.85758   0.00130   0.00000   0.00005   0.00004   1.85763
   A19        2.05975   0.00326   0.00000   0.00184   0.00184   2.06159
   A20        2.09408  -0.00626   0.00000  -0.00874  -0.00874   2.08534
   A21        2.12935   0.00300   0.00000   0.00690   0.00689   2.13625
   A22        1.98009   0.00209   0.00000   0.00971   0.00971   1.98980
   A23        2.39399  -0.00227   0.00000   0.00139   0.00140   2.39539
   A24        1.90911   0.00017   0.00000  -0.01110  -0.01111   1.89800
   A25        1.85216  -0.00370   0.00000  -0.02341  -0.02360   1.82856
   A26        1.85525  -0.00059   0.00000  -0.00182  -0.00191   1.85335
   A27        1.85216  -0.00369   0.00000  -0.02340  -0.02359   1.82857
   A28        1.95940   0.00196   0.00000   0.01154   0.01143   1.97083
   A29        1.97442   0.00304   0.00000   0.01931   0.01895   1.99337
   A30        1.95940   0.00196   0.00000   0.01154   0.01143   1.97083
    D1        3.14154   0.00000   0.00000   0.00000   0.00000   3.14154
    D2       -0.00005   0.00000   0.00000   0.00000   0.00000  -0.00005
    D3       -1.01303  -0.00013   0.00000   0.00035  -0.00013  -1.01316
    D4        2.12856  -0.00013   0.00000   0.00035  -0.00013   2.12843
    D5        1.01294   0.00013   0.00000  -0.00035   0.00013   1.01306
    D6       -2.12866   0.00013   0.00000  -0.00035   0.00013  -2.12853
    D7        0.00001   0.00000   0.00000  -0.00001  -0.00001   0.00000
    D8       -3.14158   0.00000   0.00000  -0.00001  -0.00001  -3.14159
    D9       -3.14159   0.00000   0.00000   0.00000   0.00000  -3.14159
   D10        0.00001   0.00000   0.00000  -0.00001  -0.00001   0.00000
   D11        0.99762   0.00047   0.00000   0.00367   0.00367   1.00129
   D12       -0.99757  -0.00047   0.00000  -0.00372  -0.00372  -1.00129
   D13       -3.14157   0.00000   0.00000  -0.00002  -0.00002  -3.14159
   D14       -2.14397   0.00047   0.00000   0.00366   0.00366  -2.14030
   D15        2.14403  -0.00047   0.00000  -0.00372  -0.00372   2.14031
   D16        0.00003   0.00000   0.00000  -0.00003  -0.00003   0.00000
   D17        0.00001   0.00000   0.00000   0.00000   0.00000   0.00000
   D18       -3.14158   0.00000   0.00000   0.00000   0.00000  -3.14159
   D19        2.14089  -0.00074   0.00000  -0.00359  -0.00358   2.13730
   D20       -1.00070  -0.00074   0.00000  -0.00359  -0.00358  -1.00429
   D21       -2.14088   0.00074   0.00000   0.00358   0.00358  -2.13730
   D22        1.00072   0.00074   0.00000   0.00358   0.00358   1.00429
   D23        0.00000   0.00000   0.00000   0.00000   0.00000   0.00000
   D24       -3.14159   0.00000   0.00000   0.00000   0.00000  -3.14159
   D25       -3.14159   0.00000   0.00000   0.00000   0.00000  -3.14159
   D26        0.00000   0.00000   0.00000   0.00000   0.00000   0.00000
   D27       -2.08914  -0.00011   0.00000  -0.00070  -0.00058  -2.08972
   D28       -0.00002   0.00000   0.00000  -0.00001  -0.00001  -0.00003
   D29        2.08910   0.00011   0.00000   0.00067   0.00056   2.08966
   D30        1.05245  -0.00011   0.00000  -0.00069  -0.00058   1.05187
   D31        3.14157   0.00000   0.00000  -0.00001  -0.00001   3.14156
   D32       -1.05249   0.00011   0.00000   0.00067   0.00056  -1.05193
         Item               Value     Threshold  Converged?
 Maximum Force            0.005028     0.000450     NO 
 RMS     Force            0.001796     0.000300     NO 
 Maximum Displacement     0.090316     0.001800     NO 
 RMS     Displacement     0.027683     0.001200     NO 
 Predicted change in Energy=-8.362611D-04
 Lowest energy point so far.  Saving SCF results.
 GradGradGradGradGradGradGradGradGradGradGradGradGradGradGradGradGradGrad

 Leave Link  103 at Thu Jun 15 10:27:32 2023, MaxMem=    33554432 cpu:         0.3
 (Enter /hits/basement/its/doserbd/software/gaussian/g09d1/g09/l202.exe)
                          Input orientation:                          
 ---------------------------------------------------------------------
 Center     Atomic      Atomic             Coordinates (Angstroms)
 Number     Number       Type             X           Y           Z
 ---------------------------------------------------------------------
      1          6           0       -0.018689   -0.002519    0.000000
      2          1           0       -0.165191    1.078949    0.000150
      3          1           0       -0.357313   -0.496961   -0.910483
      4          1           0       -0.357326   -0.497221    0.910336
      5          6           0        1.792062   -0.512447   -0.000046
      6          8           0        1.842195   -1.747742   -0.000160
      7          7           0        3.057095    0.206958    0.000020
      8          1           0        3.065770    1.219324    0.000114
      9          6           0        4.477251   -0.507172   -0.000048
     10          1           0        4.492962   -1.151182   -0.887820
     11          1           0        4.492961   -1.151350    0.887603
     12          6           0        5.958946    0.354865    0.000034
     13          8           0        5.914462    1.585668    0.000154
     14          7           0        7.206604   -0.375029   -0.000038
     15          1           0        7.094896   -1.383447   -0.000137
     16          6           0        8.867006   -0.009175   -0.000004
     17          1           0        9.250859   -0.459798   -0.915327
     18          1           0        8.938588    1.079205    0.000069
     19          1           0        9.250856   -0.459921    0.915261
 ---------------------------------------------------------------------
                    Distance matrix (angstroms):
                    1          2          3          4          5
     1  C    0.000000
     2  H    1.091346   0.000000
     3  H    1.090008   1.830206   0.000000
     4  H    1.090008   1.830209   1.820820   0.000000
     5  C    1.881182   2.522574   2.334299   2.334288   0.000000
     6  O    2.551214   3.466956   2.689048   2.688996   1.236312
     7  N    3.082909   3.338188   3.603152   3.603168   1.455284
     8  H    3.317648   3.234009   3.936029   3.936067   2.149735
     9  C    4.524175   4.905920   4.919554   4.919557   2.685194
    10  H    4.739478   5.240264   4.894251   5.214051   2.913929
    11  H    4.739477   5.240247   5.214068   4.894251   2.913928
    12  C    5.988309   6.166794   6.438150   6.438167   4.256189
    13  O    6.142038   6.100734   6.670965   6.670996   4.625610
    14  N    7.234889   7.513815   7.619490   7.619498   5.416285
    15  H    7.246382   7.666306   7.559762   7.559760   5.373889
    16  C    8.885697   9.097505   9.281970   9.281983   7.092821
    17  H    9.325849   9.584772   9.608246   9.780168   7.514930
    18  H    9.022357   9.103779   9.472443   9.472472   7.321624
    19  H    9.325845   9.584753   9.780165   9.608256   7.514928
                    6          7          8          9         10
     6  O    0.000000
     7  N    2.301485   0.000000
     8  H    3.209458   1.012404   0.000000
     9  C    2.912479   1.589599   2.230038   0.000000
    10  H    2.858389   2.166683   2.905961   1.096876   0.000000
    11  H    2.858386   2.166683   2.905961   1.096876   1.775424
    12  C    4.622617   2.905617   3.019562   1.714213   2.281573
    13  O    5.262602   3.172600   2.872152   2.538810   3.209285
    14  N    5.537257   4.190123   4.437169   2.732549   2.958788
    15  H    5.265318   4.339725   4.796694   2.760420   2.758983
    16  C    7.236752   5.813929   5.929886   4.417912   4.607023
    17  H    7.575265   6.296438   6.474011   4.860794   4.807947
    18  H    7.638744   5.945819   5.874489   4.734988   5.052382
    19  H    7.575271   6.296432   6.473998   4.860794   5.134832
                   11         12         13         14         15
    11  H    0.000000
    12  C    2.281572   0.000000
    13  O    3.209283   1.231607   0.000000
    14  N    2.958790   1.445474   2.348183   0.000000
    15  H    2.758988   2.076562   3.195163   1.014587   0.000000
    16  C    4.607024   2.930757   3.355747   1.700230   2.242542
    17  H    5.134822   3.512586   4.019152   2.241411   2.517713
    18  H    5.052394   3.066420   3.066242   2.261540   3.076338
    19  H    4.807951   3.512575   4.019126   2.241416   2.517740
                   16         17         18         19
    16  C    0.000000
    17  H    1.090056   0.000000
    18  H    1.090732   1.817690   0.000000
    19  H    1.090056   1.830588   1.817690   0.000000
 Stoichiometry    C5H10N2O2
 Framework group  C1[X(C5H10N2O2)]
 Deg. of freedom    51
 Full point group                 C1      NOp   1
 RotChk:  IX=0 Diff= 1.13D-03
 Largest Abelian subgroup         C1      NOp   1
 Largest concise Abelian subgroup C1      NOp   1
                         Standard orientation:                         
 ---------------------------------------------------------------------
 Center     Atomic      Atomic             Coordinates (Angstroms)
 Number     Number       Type             X           Y           Z
 ---------------------------------------------------------------------
      1          6           0        4.358174    0.550186   -0.000011
      2          1           0        4.398510    1.640786   -0.000161
      3          1           0        4.743404    0.091125    0.910472
      4          1           0        4.743442    0.090867   -0.910348
      5          6           0        2.605784   -0.133901    0.000035
      6          8           0        2.676360   -1.368197    0.000149
      7          7           0        1.276623    0.458704   -0.000031
      8          1           0        1.169260    1.465399   -0.000125
      9          6           0       -0.067120   -0.390520    0.000036
     10          1           0       -0.019950   -1.032992    0.887809
     11          1           0       -0.019933   -1.033159   -0.887615
     12          6           0       -1.625820    0.322909   -0.000046
     13          8           0       -1.701580    1.552183   -0.000165
     14          7           0       -2.796349   -0.525181    0.000027
     15          1           0       -2.586829   -1.517898    0.000126
     16          6           0       -4.484515   -0.322999   -0.000007
     17          1           0       -4.822593   -0.808909    0.915316
     18          1           0       -4.661899    0.753212   -0.000081
     19          1           0       -4.822578   -0.809031   -0.915272
 ---------------------------------------------------------------------
 Rotational constants (GHZ):      5.0885664      0.4941452      0.4544142
 Leave Link  202 at Thu Jun 15 10:27:32 2023, MaxMem=    33554432 cpu:         0.0
 (Enter /hits/basement/its/doserbd/software/gaussian/g09d1/g09/l301.exe)
 Standard basis: 6-31+G (6D, 7F)
 Ernie: Thresh=  0.10000D-02 Tol=  0.10000D-05 Strict=F.
 There are   137 symmetry adapted cartesian basis functions of A   symmetry.
 There are   137 symmetry adapted basis functions of A   symmetry.
   137 basis functions,   274 primitive gaussians,   137 cartesian basis functions
    35 alpha electrons       35 beta electrons
       nuclear repulsion energy       407.9434649039 Hartrees.
 IExCor= 3226 DFT=T Ex+Corr=BMK ExCW=0 ScaHFX=  0.420000
 ScaDFX=  1.000000  1.000000  1.000000  1.000000 ScalE2=  1.000000  1.000000
 IRadAn=      0 IRanWt=     -1 IRanGd=            0 ICorTp=0 IEmpDi=  4
 NAtoms=   19 NActive=   19 NUniq=   19 SFac= 1.00D+00 NAtFMM=   60 NAOKFM=F Big=F
 Integral buffers will be    131072 words long.
 Raffenetti 2 integral format.
 Two-electron integral symmetry is turned on.
 Leave Link  301 at Thu Jun 15 10:27:32 2023, MaxMem=    33554432 cpu:         0.3
 (Enter /hits/basement/its/doserbd/software/gaussian/g09d1/g09/l302.exe)
 NPDir=0 NMtPBC=     1 NCelOv=     1 NCel=       1 NClECP=     1 NCelD=      1
         NCelK=      1 NCelE2=     1 NClLst=     1 CellRange=     0.0.
 One-electron integrals computed using PRISM.
 NBasis=   137 RedAO= T EigKep=  4.66D-05  NBF=   137
 NBsUse=   137 1.00D-06 EigRej= -1.00D+00 NBFU=   137
 Precomputing XC quadrature grid using
 IXCGrd= 4 IRadAn=           0 IRanWt=          -1 IRanGd=           0 AccXCQ= 0.00D+00.
 Generated NRdTot=       0 NPtTot=           0 NUsed=           0 NTot=          32
 NSgBfM=   136   136   136   136   136 MxSgAt=    19 MxSgA2=    19.
 Leave Link  302 at Thu Jun 15 10:27:33 2023, MaxMem=    33554432 cpu:         1.7
 (Enter /hits/basement/its/doserbd/software/gaussian/g09d1/g09/l303.exe)
 DipDrv:  MaxL=1.
 Leave Link  303 at Thu Jun 15 10:27:33 2023, MaxMem=    33554432 cpu:         0.2
 (Enter /hits/basement/its/doserbd/software/gaussian/g09d1/g09/l401.exe)
 Initial guess from the checkpoint file:  "G-stretched08.chk"
 B after Tr=     0.000000    0.000000    0.000000
         Rot=    1.000000    0.000001    0.000000    0.000214 Ang=   0.02 deg.
 Guess basis will be translated and rotated to current coordinates.
 JPrj=2 DoOrth=T DoCkMO=T.
 Generating alternative initial guess.
 ExpMin= 4.38D-02 ExpMax= 5.48D+03 ExpMxC= 8.25D+02 IAcc=2 IRadAn=         4 AccDes= 0.00D+00
 Harris functional with IExCor= 1009 and IRadAn=       4 diagonalized for initial guess.
 HarFok:  IExCor= 1009 AccDes= 0.00D+00 IRadAn=         4 IDoV= 1 UseB2=F ITyADJ=14
 ICtDFT=  3500011 ScaDFX=  1.000000  1.000000  1.000000  1.000000
 FoFCou: FMM=F IPFlag=           0 FMFlag=      100000 FMFlg1=           0
         NFxFlg=           0 DoJE=T BraDBF=F KetDBF=T FulRan=T
         wScrn=  0.000000 ICntrl=     500 IOpCl=  0 I1Cent=   200000004 NGrid=           0
         NMat0=    1 NMatS0=      1 NMatT0=    0 NMatD0=    1 NMtDS0=    0 NMtDT0=    0
 Petite list used in FoFCou.
 Harris En= -455.877757888423    
 Leave Link  401 at Thu Jun 15 10:27:33 2023, MaxMem=    33554432 cpu:         3.6
 (Enter /hits/basement/its/doserbd/software/gaussian/g09d1/g09/l502.exe)
 Closed shell SCF:
 Using DIIS extrapolation, IDIIS=  1040.
 Integral symmetry usage will be decided dynamically.
 IVT=       77006 IEndB=       77006 NGot=    33554432 MDV=    33512973
 LenX=    33512973 LenY=    33493763
 Requested convergence on RMS density matrix=1.00D-08 within 128 cycles.
 Requested convergence on MAX density matrix=1.00D-06.
 Requested convergence on             energy=1.00D-06.
 No special actions if energy rises.
 Fock matrices will be formed incrementally for  20 cycles.

 Cycle   1  Pass 1  IDiag  1:
 FoFJK:  IHMeth= 1 ICntrl=       0 DoSepK=F KAlg= 0 I1Cent=   0 FoldK=F
 IRaf= 870000000 NMat=   1 IRICut=       1 DoRegI=T DoRafI=F ISym2E= 0.
 FoFCou: FMM=F IPFlag=           0 FMFlag=      100000 FMFlg1=           0
         NFxFlg=           0 DoJE=F BraDBF=F KetDBF=F FulRan=T
         wScrn=  0.000000 ICntrl=       0 IOpCl=  0 I1Cent=           0 NGrid=           0
         NMat0=    1 NMatS0=      1 NMatT0=    0 NMatD0=    1 NMtDS0=    0 NMtDT0=    0
 Symmetry not used in FoFCou.
 E= -456.021219460906    
 DIIS: error= 1.76D-03 at cycle   1 NSaved=   1.
 NSaved= 1 IEnMin= 1 EnMin= -456.021219460906     IErMin= 1 ErrMin= 1.76D-03
 ErrMax= 1.76D-03  0.00D+00 EMaxC= 1.00D-01 BMatC= 8.18D-04 BMatP= 8.18D-04
 IDIUse=3 WtCom= 9.82D-01 WtEn= 1.76D-02
 Coeff-Com:  0.100D+01
 Coeff-En:   0.100D+01
 Coeff:      0.100D+01
 Gap=     0.501 Goal=   None    Shift=    0.000
 GapD=    0.501 DampG=2.000 DampE=1.000 DampFc=2.0000 IDamp=-1.
 RMSDP=1.24D-03 MaxDP=6.11D-02              OVMax= 1.22D-02

 Cycle   2  Pass 1  IDiag  1:
 RMSU=  1.14D-03    CP:  1.01D+00
 E= -456.022500629462     Delta-E=       -0.001281168556 Rises=F Damp=F
 DIIS: error= 9.97D-04 at cycle   2 NSaved=   2.
 NSaved= 2 IEnMin= 2 EnMin= -456.022500629462     IErMin= 2 ErrMin= 9.97D-04
 ErrMax= 9.97D-04  0.00D+00 EMaxC= 1.00D-01 BMatC= 9.71D-05 BMatP= 8.18D-04
 IDIUse=3 WtCom= 9.90D-01 WtEn= 9.97D-03
 Coeff-Com:  0.930D-01 0.907D+00
 Coeff-En:   0.000D+00 0.100D+01
 Coeff:      0.921D-01 0.908D+00
 Gap=     0.300 Goal=   None    Shift=    0.000
 RMSDP=2.22D-04 MaxDP=5.09D-03 DE=-1.28D-03 OVMax= 7.20D-03

 Cycle   3  Pass 1  IDiag  1:
 RMSU=  2.11D-04    CP:  1.01D+00  1.04D+00
 E= -456.022465000142     Delta-E=        0.000035629319 Rises=F Damp=F
 DIIS: error= 1.32D-03 at cycle   3 NSaved=   3.
 NSaved= 3 IEnMin= 2 EnMin= -456.022500629462     IErMin= 2 ErrMin= 9.97D-04
 ErrMax= 1.32D-03  0.00D+00 EMaxC= 1.00D-01 BMatC= 1.76D-04 BMatP= 9.71D-05
 IDIUse=3 WtCom= 2.16D-01 WtEn= 7.84D-01
 Coeff-Com: -0.609D-01 0.604D+00 0.457D+00
 Coeff-En:   0.000D+00 0.569D+00 0.431D+00
 Coeff:     -0.131D-01 0.576D+00 0.437D+00
 Gap=     0.298 Goal=   None    Shift=    0.000
 RMSDP=1.44D-04 MaxDP=5.18D-03 DE= 3.56D-05 OVMax= 4.08D-03

 Cycle   4  Pass 1  IDiag  1:
 RMSU=  7.80D-05    CP:  1.01D+00  1.10D+00  6.41D-01
 E= -456.022611535420     Delta-E=       -0.000146535278 Rises=F Damp=F
 DIIS: error= 2.37D-04 at cycle   4 NSaved=   4.
 NSaved= 4 IEnMin= 4 EnMin= -456.022611535420     IErMin= 4 ErrMin= 2.37D-04
 ErrMax= 2.37D-04  0.00D+00 EMaxC= 1.00D-01 BMatC= 4.76D-06 BMatP= 9.71D-05
 IDIUse=3 WtCom= 9.98D-01 WtEn= 2.37D-03
 Coeff-Com: -0.349D-01 0.230D+00 0.227D+00 0.577D+00
 Coeff-En:   0.000D+00 0.000D+00 0.000D+00 0.100D+01
 Coeff:     -0.348D-01 0.230D+00 0.227D+00 0.578D+00
 Gap=     0.298 Goal=   None    Shift=    0.000
 RMSDP=3.45D-05 MaxDP=7.03D-04 DE=-1.47D-04 OVMax= 6.14D-04

 Cycle   5  Pass 1  IDiag  1:
[...]
 ! D30   D(15,14,16,17)         60.2886         -DE/DX =    0.0                 !
 ! D31   D(15,14,16,18)        179.9974         -DE/DX =    0.0                 !
 ! D32   D(15,14,16,19)        -60.2935         -DE/DX =    0.0                 !
 --------------------------------------------------------------------------------
 Lowest energy point so far.  Saving SCF results.
 GradGradGradGradGradGradGradGradGradGradGradGradGradGradGradGradGradGrad

 Largest change from initial coordinates is atom   17       0.059 Angstoms.
 Leave Link  103 at Thu Jun 15 10:28:05 2023, MaxMem=    33554432 cpu:         0.3
 (Enter /hits/basement/its/doserbd/software/gaussian/g09d1/g09/l202.exe)
                          Input orientation:                          
 ---------------------------------------------------------------------
 Center     Atomic      Atomic             Coordinates (Angstroms)
 Number     Number       Type             X           Y           Z
 ---------------------------------------------------------------------
      1          6           0       -0.026350    0.000877    0.000000
      2          1           0       -0.173377    1.082147    0.000109
      3          1           0       -0.359402   -0.495635   -0.911278
      4          1           0       -0.359405   -0.495821    0.911175
      5          6           0        1.799928   -0.511961   -0.000050
      6          8           0        1.846112   -1.746897   -0.000172
      7          7           0        3.064905    0.206066    0.000022
      8          1           0        3.074371    1.218404    0.000128
      9          6           0        4.482618   -0.509335   -0.000049
     10          1           0        4.498073   -1.153599   -0.887753
     11          1           0        4.498073   -1.153775    0.887527
     12          6           0        5.959172    0.352368    0.000039
     13          8           0        5.915078    1.583357    0.000175
     14          7           0        7.206180   -0.377889   -0.000043
     15          1           0        7.094632   -1.386257   -0.000158
     16          6           0        8.859342   -0.008355   -0.000003
     17          1           0        9.247606   -0.456425   -0.914932
     18          1           0        8.928840    1.080291    0.000074
     19          1           0        9.247598   -0.456554    0.914868
 ---------------------------------------------------------------------
                    Distance matrix (angstroms):
                    1          2          3          4          5
     1  C    0.000000
     2  H    1.091220   0.000000
     3  H    1.089897   1.831564   0.000000
     4  H    1.089897   1.831565   1.822453   0.000000
     5  C    1.896917   2.536752   2.343781   2.343782   0.000000
     6  O    2.561411   3.475892   2.694451   2.694448   1.235800
     7  N    3.098058   3.354696   3.612303   3.612305   1.454554
     8  H    3.331192   3.250604   3.944538   3.944539   2.149038
     9  C    4.537743   4.920478   4.927037   4.927038   2.682691
    10  H    4.753033   5.254455   4.901891   5.221485   2.911993
    11  H    4.753034   5.254455   5.221486   4.901893   2.911993
    12  C    5.995833   6.175818   6.440030   6.440032   4.248102
    13  O    6.148562   6.109050   6.672485   6.672484   4.617879
    14  N    7.242442   7.522604   7.621171   7.621175   5.407914
    15  H    7.254828   7.675739   7.562141   7.562147   5.366403
    16  C    8.885697   9.098308   9.276482   9.276485   7.077354
    17  H    9.330193   9.589548   9.607089   9.779105   7.503866
    18  H    9.020010   9.102217   9.464964   9.464974   7.304564
    19  H    9.330184   9.589533   9.779099   9.607084   7.503860
                    6          7          8          9         10
     6  O    0.000000
     7  N    2.302069   0.000000
     8  H    3.209615   1.012382   0.000000
     9  C    2.912512   1.587989   2.228955   0.000000
    10  H    2.858794   2.165826   2.905453   1.096966   0.000000
    11  H    2.858794   2.165826   2.905450   1.096966   1.775280
    12  C    4.617811   2.897962   3.011992   1.709602   2.278359
    13  O    5.258049   3.165504   2.864054   2.536001   3.207374
    14  N    5.532135   4.182244   4.429447   2.726732   2.953574
    15  H    5.260896   4.332919   4.790277   2.755287   2.753920
    16  C    7.225506   5.798403   5.913614   4.405303   4.595689
    17  H    7.568635   6.285048   6.461519   4.852311   4.800506
    18  H    7.626142   5.928744   5.856099   4.721843   5.040853
    19  H    7.568638   6.285037   6.461499   4.852307   5.127699
                   11         12         13         14         15
    11  H    0.000000
    12  C    2.278357   0.000000
    13  O    3.207365   1.231779   0.000000
    14  N    2.953578   1.445097   2.348071   0.000000
    15  H    2.753933   2.076556   3.195302   1.014518   0.000000
    16  C    4.595690   2.922518   3.346975   1.693960   2.238932
    17  H    5.127692   3.507866   4.012965   2.238439   2.517280
    18  H    5.040865   3.057581   3.055461   2.256955   3.073789
    19  H    4.800505   3.507850   4.012928   2.238445   2.517316
                   16         17         18         19
    16  C    0.000000
    17  H    1.090235   0.000000
    18  H    1.090862   1.816685   0.000000
    19  H    1.090235   1.829800   1.816686   0.000000
 Stoichiometry    C5H10N2O2
 Framework group  C1[X(C5H10N2O2)]
 Deg. of freedom    51
 Full point group                 C1      NOp   1
 RotChk:  IX=0 Diff= 5.89D-17
 Largest Abelian subgroup         C1      NOp   1
 Largest concise Abelian subgroup C1      NOp   1
                         Standard orientation:                         
 ---------------------------------------------------------------------
 Center     Atomic      Atomic             Coordinates (Angstroms)
 Number     Number       Type             X           Y           Z
 ---------------------------------------------------------------------
      1          6           0        4.366597    0.553088   -0.000011
      2          1           0        4.407918    1.643526   -0.000120
      3          1           0        4.746294    0.091269    0.911267
      4          1           0        4.746315    0.091083   -0.911186
      5          6           0        2.598756   -0.134688    0.000039
      6          8           0        2.672725   -1.368273    0.000161
      7          7           0        1.270026    0.457093   -0.000032
      8          1           0        1.162290    1.463726   -0.000138
      9          6           0       -0.071507   -0.392610    0.000039
     10          1           0       -0.024320   -1.035330    0.887743
     11          1           0       -0.024303   -1.035505   -0.887537
     12          6           0       -1.624767    0.321620   -0.000050
     13          8           0       -1.700432    1.551073   -0.000185
     14          7           0       -2.794961   -0.526291    0.000033
     15          1           0       -2.586010   -1.519059    0.000147
     16          6           0       -4.476196   -0.319054   -0.000008
     17          1           0       -4.819110   -0.802714    0.914922
     18          1           0       -4.651092    0.757696   -0.000084
     19          1           0       -4.819088   -0.802841   -0.914879
 ---------------------------------------------------------------------
 Rotational constants (GHZ):      5.0900376      0.4947515      0.4549397
 Leave Link  202 at Thu Jun 15 10:28:05 2023, MaxMem=    33554432 cpu:         0.1
 (Enter /hits/basement/its/doserbd/software/gaussian/g09d1/g09/l601.exe)
 Copying SCF densities to generalized density rwf, IOpCl= 0 IROHF=0.

 **********************************************************************

            Population analysis using the SCF density.

 **********************************************************************

 Orbital symmetries:
       Occupied  (A) (A) (A) (A) (A) (A) (A) (A) (A) (A) (A) (A)
                 (A) (A) (A) (A) (A) (A) (A) (A) (A) (A) (A) (A)
                 (A) (A) (A) (A) (A) (A) (A) (A) (A) (A) (A)
       Virtual   (A) (A) (A) (A) (A) (A) (A) (A) (A) (A) (A) (A)
                 (A) (A) (A) (A) (A) (A) (A) (A) (A) (A) (A) (A)
                 (A) (A) (A) (A) (A) (A) (A) (A) (A) (A) (A) (A)
                 (A) (A) (A) (A) (A) (A) (A) (A) (A) (A) (A) (A)
                 (A) (A) (A) (A) (A) (A) (A) (A) (A) (A) (A) (A)
                 (A) (A) (A) (A) (A) (A) (A) (A) (A) (A) (A) (A)
                 (A) (A) (A) (A) (A) (A) (A) (A) (A) (A) (A) (A)
                 (A) (A) (A) (A) (A) (A) (A) (A) (A) (A) (A) (A)
                 (A) (A) (A) (A) (A) (A)
 The electronic state is 1-A.
 Alpha  occ. eigenvalues --  -19.54053 -19.52824 -14.72460 -14.71825 -10.63389
 Alpha  occ. eigenvalues --  -10.62067 -10.55229 -10.54805 -10.50893  -1.15071
 Alpha  occ. eigenvalues --   -1.14013  -0.97352  -0.96644  -0.80403  -0.77846
 Alpha  occ. eigenvalues --   -0.76379  -0.63409  -0.62691  -0.56625  -0.51917
 Alpha  occ. eigenvalues --   -0.51378  -0.50493  -0.50466  -0.48514  -0.48055
 Alpha  occ. eigenvalues --   -0.48046  -0.46389  -0.44317  -0.43888  -0.42029
 Alpha  occ. eigenvalues --   -0.41722  -0.31017  -0.30605  -0.29366  -0.28830
 Alpha virt. eigenvalues --    0.00939   0.03379   0.03399   0.03634   0.04082
 Alpha virt. eigenvalues --    0.06472   0.07073   0.07176   0.07920   0.08230
 Alpha virt. eigenvalues --    0.09183   0.10085   0.10861   0.10937   0.11631
 Alpha virt. eigenvalues --    0.11918   0.12934   0.13667   0.15161   0.16043
 Alpha virt. eigenvalues --    0.16318   0.16877   0.18155   0.18700   0.20569
 Alpha virt. eigenvalues --    0.20980   0.21914   0.22446   0.22901   0.23774
 Alpha virt. eigenvalues --    0.23926   0.24917   0.26846   0.27304   0.27508
 Alpha virt. eigenvalues --    0.27707   0.28961   0.29667   0.30984   0.31529
 Alpha virt. eigenvalues --    0.32288   0.33202   0.34171   0.35792   0.36256
 Alpha virt. eigenvalues --    0.36258   0.36754   0.38560   0.39913   0.40835
 Alpha virt. eigenvalues --    0.42473   0.44594   0.46214   0.46755   0.52333
 Alpha virt. eigenvalues --    0.55844   0.65751   0.67945   0.69831   0.69882
 Alpha virt. eigenvalues --    0.70634   0.73827   0.77286   0.78892   0.80849
 Alpha virt. eigenvalues --    0.82006   0.84633   0.86164   0.92130   0.93723
 Alpha virt. eigenvalues --    0.99132   1.00591   1.01655   1.01835   1.10053
 Alpha virt. eigenvalues --    1.10517   1.11721   1.12638   1.13243   1.14730
 Alpha virt. eigenvalues --    1.15780   1.18284   1.22256   1.22519   1.25093
 Alpha virt. eigenvalues --    1.28532   1.32134   1.33594   1.36097   1.36209
 Alpha virt. eigenvalues --    1.40848   1.42479   1.45283   1.48257   1.51089
 Alpha virt. eigenvalues --    1.52973   1.55341   1.57380   1.65743   1.82127
 Alpha virt. eigenvalues --    1.99310   2.09833
          Condensed to atoms (all electrons):
               1          2          3          4          5          6
     1  C    5.861493   0.338432   0.398028   0.398028  -0.026803  -0.123311
     2  H    0.338432   0.522631  -0.025527  -0.025527  -0.016613   0.005725
     3  H    0.398028  -0.025527   0.468885  -0.022679  -0.042549  -0.001528
     4  H    0.398028  -0.025527  -0.022679   0.468884  -0.042549  -0.001528
     5  C   -0.026803  -0.016613  -0.042549  -0.042549   5.457925   0.389563
     6  O   -0.123311   0.005725  -0.001528  -0.001528   0.389563   8.478089
     7  N   -0.141853   0.003305   0.000089   0.000089  -0.052788  -0.217452
     8  H    0.007862  -0.000254   0.000004   0.000004   0.024202   0.007184
     9  C   -0.079883   0.000543  -0.002757  -0.002757  -0.611491  -0.037454
    10  H   -0.001138   0.000000   0.000004  -0.000001   0.001791   0.000768
    11  H   -0.001138   0.000000  -0.000001   0.000004   0.001792   0.000768
    12  C    0.033382  -0.000200  -0.000185  -0.000185   0.305782   0.017457
    13  O   -0.000960  -0.000001   0.000000   0.000000   0.004528  -0.000182
    14  N   -0.000329   0.000002   0.000000   0.000000   0.005304  -0.001247
    15  H    0.000049   0.000000   0.000000   0.000000   0.001971   0.000054
    16  C    0.000078   0.000000   0.000000   0.000000   0.002294  -0.000051
    17  H    0.000000   0.000000   0.000000   0.000000   0.000020   0.000000
    18  H    0.000000   0.000000   0.000000   0.000000  -0.000018   0.000000
    19  H    0.000000   0.000000   0.000000   0.000000   0.000020   0.000000
               7          8          9         10         11         12
     1  C   -0.141853   0.007862  -0.079883  -0.001138  -0.001138   0.033382
     2  H    0.003305  -0.000254   0.000543   0.000000   0.000000  -0.000200
     3  H    0.000089   0.000004  -0.002757   0.000004  -0.000001  -0.000185
     4  H    0.000089   0.000004  -0.002757  -0.000001   0.000004  -0.000185
     5  C   -0.052788   0.024202  -0.611491   0.001791   0.001792   0.305782
     6  O   -0.217452   0.007184  -0.037454   0.000768   0.000768   0.017457
     7  N    7.594360   0.256404   0.238284  -0.047554  -0.047554  -0.034755
     8  H    0.256404   0.325249  -0.046152   0.001649   0.001649   0.014416
     9  C    0.238284  -0.046152   9.716327   0.337355   0.337355  -2.652626
    10  H   -0.047554   0.001649   0.337355   0.499805  -0.036813  -0.006291
    11  H   -0.047554   0.001649   0.337355  -0.036813   0.499804  -0.006292
    12  C   -0.034755   0.014416  -2.652626  -0.006291  -0.006292   7.047705
    13  O    0.020994   0.002342   0.017219   0.001173   0.001173   0.248897
    14  N    0.011754   0.001531  -0.631185   0.013863   0.013862   0.469771
    15  H   -0.000038  -0.000002   0.057001  -0.000552  -0.000552  -0.048468
    16  C    0.002277   0.000307  -0.134813   0.001786   0.001786   0.001582
    17  H   -0.000011   0.000000   0.003589   0.000005  -0.000001  -0.002366
    18  H   -0.000006   0.000000  -0.008012  -0.000001  -0.000001  -0.007760
    19  H   -0.000011   0.000000   0.003588  -0.000001   0.000005  -0.002366
              13         14         15         16         17         18
     1  C   -0.000960  -0.000329   0.000049   0.000078   0.000000   0.000000
     2  H   -0.000001   0.000002   0.000000   0.000000   0.000000   0.000000
     3  H    0.000000   0.000000   0.000000   0.000000   0.000000   0.000000
     4  H    0.000000   0.000000   0.000000   0.000000   0.000000   0.000000
     5  C    0.004528   0.005304   0.001971   0.002294   0.000020  -0.000018
     6  O   -0.000182  -0.001247   0.000054  -0.000051   0.000000   0.000000
     7  N    0.020994   0.011754  -0.000038   0.002277  -0.000011  -0.000006
     8  H    0.002342   0.001531  -0.000002   0.000307   0.000000   0.000000
     9  C    0.017219  -0.631185   0.057001  -0.134813   0.003589  -0.008012
    10  H    0.001173   0.013863  -0.000552   0.001786   0.000005  -0.000001
    11  H    0.001173   0.013862  -0.000552   0.001786  -0.000001  -0.000001
    12  C    0.248897   0.469771  -0.048468   0.001582  -0.002366  -0.007760
    13  O    8.462705  -0.208198   0.010264  -0.022358  -0.000058   0.004447
    14  N   -0.208198   7.548390   0.256323   0.184111  -0.037342  -0.033839
    15  H    0.010264   0.256323   0.404843  -0.028633  -0.000699   0.002061
    16  C   -0.022358   0.184111  -0.028633   5.225406   0.381857   0.400828
    17  H   -0.000058  -0.037342  -0.000699   0.381857   0.495552  -0.022553
    18  H    0.004447  -0.033839   0.002061   0.400828  -0.022553   0.445451
    19  H   -0.000058  -0.037343  -0.000699   0.381858  -0.032562  -0.022553
              19
     1  C    0.000000
     2  H    0.000000
     3  H    0.000000
     4  H    0.000000
     5  C    0.000020
     6  O    0.000000
     7  N   -0.000011
     8  H    0.000000
     9  C    0.003588
    10  H   -0.000001
    11  H    0.000005
    12  C   -0.002366
    13  O   -0.000058
    14  N   -0.037343
    15  H   -0.000699
    16  C    0.381858
    17  H   -0.032562
    18  H   -0.022553
    19  H    0.495551
 Mulliken charges:
               1
     1  C   -0.661939
     2  H    0.197483
     3  H    0.228216
     4  H    0.228216
     5  C    0.597622
     6  O   -0.516856
     7  N   -0.585536
     8  H    0.403606
     9  C   -0.504129
    10  H    0.234153
    11  H    0.234154
    12  C    0.622504
    13  O   -0.541927
    14  N   -0.555427
    15  H    0.347078
    16  C   -0.398315
    17  H    0.214568
    18  H    0.241957
    19  H    0.214570
 Sum of Mulliken charges =   0.00000
 Mulliken charges with hydrogens summed into heavy atoms:
               1
     1  C   -0.008023
     5  C    0.597622
     6  O   -0.516856
     7  N   -0.181930
     9  C   -0.035822
    12  C    0.622504
    13  O   -0.541927
    14  N   -0.208348
    16  C    0.272780
 Electronic spatial extent (au):  <R**2>=           2382.7766
 Charge=              0.0000 electrons
 Dipole moment (field-independent basis, Debye):
    X=             -2.8301    Y=             -0.7478    Z=              0.0001  Tot=              2.9272
 Quadrupole moment (field-independent basis, Debye-Ang):
   XX=            -34.4078   YY=            -61.5887   ZZ=            -55.6156
   XY=             18.7568   XZ=             -0.0018   YZ=              0.0008
 Traceless Quadrupole moment (field-independent basis, Debye-Ang):
   XX=             16.1296   YY=            -11.0513   ZZ=             -5.0782
   XY=             18.7568   XZ=             -0.0018   YZ=              0.0008
 Octapole moment (field-independent basis, Debye-Ang**2):
  XXX=            -65.2947  YYY=             -1.4443  ZZZ=              0.0006  XYY=             -9.6077
  XXY=              8.1011  XXZ=             -0.0012  XZZ=              0.6681  YZZ=             -2.4838
  YYZ=             -0.0002  XYZ=              0.0011
 Hexadecapole moment (field-independent basis, Debye-Ang**3):
 XXXX=          -2153.2726 YYYY=           -301.9353 ZZZZ=            -75.5031 XXXY=            121.2975
 XXXZ=             -0.0202 YYYX=             56.5459 YYYZ=              0.0129 ZZZX=             -0.0110
 ZZZY=              0.0111 XXYY=           -540.7081 XXZZ=           -462.7982 YYZZ=            -60.9902
 XXYZ=              0.0090 YYXZ=             -0.0119 ZZXY=             -3.9056
 N-N= 4.080812143749D+02 E-N=-1.880382977205D+03  KE= 4.521077485959D+02
 No NMR shielding tensors so no spin-rotation constants.
 Leave Link  601 at Thu Jun 15 10:28:06 2023, MaxMem=    33554432 cpu:         1.2
 (Enter /hits/basement/its/doserbd/software/gaussian/g09d1/g09/l9999.exe)
 1\1\GINC-HASWELL-031\FOpt\RBMK\6-31+G\C5H10N2O2\SUCERQDL\15-Jun-2023\0
 \\#P bmk/6-31+g opt(modredun,calcfc)\\Gaussian input prepared by ASE\\
 0,1\C,-0.0263503072,0.0008765437,-0.0000000245\H,-0.173376698,1.082146
 5033,0.0001090792\H,-0.3594021606,-0.4956346559,-0.9112781144\H,-0.359
 4053189,-0.495821342,0.9111751224\C,1.7999283242,-0.5119605369,-0.0000
 498333\O,1.8461117157,-1.7468973741,-0.0001721031\N,3.0649053644,0.206
 0658109,0.0000218565\H,3.0743705012,1.2184037579,0.0001277078\C,4.4826
 18416,-0.5093346766,-0.0000493321\H,4.4980727539,-1.1535989078,-0.8877
 532842\H,4.498072985,-1.1537753097,0.8875265538\C,5.9591715398,0.35236
 75848,0.0000393945\O,5.9150775333,1.583357345,0.0001747962\N,7.2061803
 927,-0.3778894771,-0.000043419\H,7.0946319679,-1.3862566944,-0.0001576
 649\C,8.8593422239,-0.00835497,-0.0000026349\H,9.2476064938,-0.4564254
 705,-0.9149323611\H,8.9288401689,1.0802909014,0.0000737635\H,9.2475975
 715,-0.4565538094,0.914868129\\Version=ES64L-G09RevD.01\State=1-A\HF=-
 456.0226302\RMSD=5.410e-09\RMSF=1.467e-02\Dipole=1.1367409,-0.1847027,
 -0.0000334\Quadrupole=14.497167,-10.7216159,-3.7755512,-11.728836,-0.0
 012471,-0.0007046\PG=C01 [X(C5H10N2O2)]\\@


 GOD DOES NOT PLAY WITH DICE.
               -- A. EINSTEIN
 Job cpu time:       0 days  0 hours 12 minutes 57.1 seconds.
 File lengths (MBytes):  RWF=    113 Int=      0 D2E=      0 Chk=      3 Scr=      1
 Normal termination of Gaussian 09 at Thu Jun 15 10:28:06 2023.
